 Entering Gaussian System, Link 0=g16
 Initial command:
 /home1/apps/gaussian/16rA.03/g16/l1.exe "/tmp/Gau-188474.inp" -scrdir="/tmp/"
 Entering Link 1 = /home1/apps/gaussian/16rA.03/g16/l1.exe PID=    188476.
  
 Copyright (c) 1988,1990,1992,1993,1995,1998,2003,2009,2016,
            Gaussian, Inc.  All Rights Reserved.
  
 This is part of the Gaussian(R) 16 program.  It is based on
 the Gaussian(R) 09 system (copyright 2009, Gaussian, Inc.),
 the Gaussian(R) 03 system (copyright 2003, Gaussian, Inc.),
 the Gaussian(R) 98 system (copyright 1998, Gaussian, Inc.),
 the Gaussian(R) 94 system (copyright 1995, Gaussian, Inc.),
 the Gaussian 92(TM) system (copyright 1992, Gaussian, Inc.),
 the Gaussian 90(TM) system (copyright 1990, Gaussian, Inc.),
 the Gaussian 88(TM) system (copyright 1988, Gaussian, Inc.),
 the Gaussian 86(TM) system (copyright 1986, Carnegie Mellon
 University), and the Gaussian 82(TM) system (copyright 1983,
 Carnegie Mellon University). Gaussian is a federally registered
 trademark of Gaussian, Inc.
  
 This software contains proprietary and confidential information,
 including trade secrets, belonging to Gaussian, Inc.
  
 This software is provided under written license and may be
 used, copied, transmitted, or stored only in accord with that
 written license.
  
 The following legend is applicable only to US Government
 contracts under FAR:
  
                    RESTRICTED RIGHTS LEGEND
  
 Use, reproduction and disclosure by the US Government is
 subject to restrictions as set forth in subparagraphs (a)
 and (c) of the Commercial Computer Software - Restricted
 Rights clause in FAR 52.227-19.
  
 Gaussian, Inc.
 340 Quinnipiac St., Bldg. 40, Wallingford CT 06492
  
  
 ---------------------------------------------------------------
 Warning -- This program may not be used in any manner that
 competes with the business of Gaussian, Inc. or will provide
 assistance to any competitor of Gaussian, Inc.  The licensee
 of this program is prohibited from giving any competitor of
 Gaussian, Inc. access to this program.  By using this program,
 the user acknowledges that Gaussian, Inc. is engaged in the
 business of creating and licensing software in the field of
 computational chemistry and represents and warrants to the
 licensee that it is not a competitor of Gaussian, Inc. and that
 it will not use this program in any manner prohibited above.
 ---------------------------------------------------------------
  

 Cite this work as:
 Gaussian 16, Revision A.03,
 M. J. Frisch, G. W. Trucks, H. B. Schlegel, G. E. Scuseria, 
 M. A. Robb, J. R. Cheeseman, G. Scalmani, V. Barone, 
 G. A. Petersson, H. Nakatsuji, X. Li, M. Caricato, A. V. Marenich, 
 J. Bloino, B. G. Janesko, R. Gomperts, B. Mennucci, H. P. Hratchian, 
 J. V. Ortiz, A. F. Izmaylov, J. L. Sonnenberg, D. Williams-Young, 
 F. Ding, F. Lipparini, F. Egidi, J. Goings, B. Peng, A. Petrone, 
 T. Henderson, D. Ranasinghe, V. G. Zakrzewski, J. Gao, N. Rega, 
 G. Zheng, W. Liang, M. Hada, M. Ehara, K. Toyota, R. Fukuda, 
 J. Hasegawa, M. Ishida, T. Nakajima, Y. Honda, O. Kitao, H. Nakai, 
 T. Vreven, K. Throssell, J. A. Montgomery, Jr., J. E. Peralta, 
 F. Ogliaro, M. J. Bearpark, J. J. Heyd, E. N. Brothers, K. N. Kudin, 
 V. N. Staroverov, T. A. Keith, R. Kobayashi, J. Normand, 
 K. Raghavachari, A. P. Rendell, J. C. Burant, S. S. Iyengar, 
 J. Tomasi, M. Cossi, J. M. Millam, M. Klene, C. Adamo, R. Cammi, 
 J. W. Ochterski, R. L. Martin, K. Morokuma, O. Farkas, 
 J. B. Foresman, and D. J. Fox, Gaussian, Inc., Wallingford CT, 2016.
 
 ******************************************
 Gaussian 16:  ES64L-G16RevA.03 25-Dec-2016
                17-Feb-2023 
 ******************************************
 %Chk=checkpoint.chk
 %NProcShared=12
 Will use up to   12 processors via shared memory.
 -----------------------------------------------------
 #wB97XD Gen Opt=(QST3) SCRF=(Solvent=TetraHydroFuran)
 -----------------------------------------------------
 1/5=1,18=20,26=3,27=203,38=1/1,3;
 2/9=110,12=2,17=6,18=5,40=1/2;
 3/5=7,11=2,25=1,30=1,70=2201,71=1,72=20,74=-58/1,2,3;
 4//1;
 5/5=2,38=5,53=20/2;
 6/7=2,8=2,9=2,10=2,28=1/1;
 7//1,2,3,16;
 1/5=1,18=20,26=3,27=203/3(2);
 2/9=110/2;
 99//99;
 2/9=110/2;
 3/5=7,6=1,11=2,25=1,30=1,70=2205,71=1,72=20,74=-58,82=7/1,2,3;
 4/5=5,16=3,69=1/1;
 5/5=2,38=5,53=20/2;
 7//1,2,3,16;
 1/5=1,18=20,26=3,27=203/3(-5);
 2/9=110/2;
 6/7=2,8=2,9=2,10=2,19=2,28=1/1;
 99/9=1/99;
 ------------------------------------
 Anthracene Transition State Reactant
 ------------------------------------
 Symbolic Z-matrix:
 Charge =  0 Multiplicity = 1
 Mn                   -1.0194   -0.13282  -1.30041 
 C                    -1.95084   1.09527  -2.29845 
 O                    -2.50101   1.87539  -2.92239 
 C                    -1.94096  -1.55093  -2.01671 
 O                    -2.47772  -2.45176  -2.46467 
 C                     0.20025  -0.27236  -2.6431 
 N                     0.04927  -1.53221  -0.03083 
 C                     0.07866  -3.04556   1.8282 
 C                     1.46702  -3.1228    1.77993 
 C                     1.37634  -1.67638  -0.11513 
 H                    -0.49205  -3.5931    2.57846 
 H                     2.01871  -3.71611   2.51212 
 N                    -2.37065   0.02942   0.19031 
 C                    -3.16697   0.13023   1.0198 
 C                    -4.10539   0.2658    2.09209 
 C                    -3.6202    0.43566   3.39952 
 C                    -4.52704   0.57079   4.44399 
 C                    -5.48203   0.23058   1.82486 
 H                    -2.54534   0.46071   3.58681 
 H                    -5.82775   0.09615   0.79488 
 N                     0.05018   1.50245  -0.35369 
 C                     0.08073   3.37421   1.14383 
 C                     1.47006   3.42805   1.09346 
 H                    -0.49002   4.07266   1.75603 
 C                    -0.58809  -2.23239   0.92237 
 H                    -1.67251  -2.14107   0.96102 
 C                    -0.58735   2.39419   0.42298 
 H                    -1.67305   2.32336   0.46813 
 H                    -4.16287   0.70328   5.46409 
 O                     0.94147  -0.36186  -3.51126 
 C                     3.71034   0.05692   0.59661 
 C                     6.44285   0.00195   0.07986 
 C                     2.14993  -2.41932   0.78562 
 C                     3.63318  -2.42875   0.67238 
 C                     4.33237  -3.60918   0.65808 
 C                     5.74721  -3.62943   0.48325 
 C                     6.44286  -2.47015   0.28898 
 C                     5.76733  -1.20725   0.29051 
 C                     4.35206  -1.18133   0.52939 
 H                     3.79554  -4.55679   0.74485 
 H                     6.26618  -4.58974   0.47691 
 H                     7.52231  -2.48926   0.12265 
 C                     4.35394   1.25516   0.28141 
 C                     5.76945   1.23001   0.04342 
 C                     6.44775   2.46555  -0.21061 
 C                     5.75436   3.64152  -0.25402 
 C                     4.33929   3.65908  -0.08147 
 C                     3.63726   2.50702   0.16895 
 H                     7.52743   2.44868  -0.37582 
 H                     6.27529   4.58008  -0.45221 
 H                     3.80437   4.6056   -0.18931 
 C                     2.15352   2.52607   0.2752 
 H                     2.02229   4.15802   1.68899 
 C                     1.37923   1.61496  -0.45427 
 H                     1.87683   0.94259  -1.1522 
 H                     1.87309  -1.17143  -0.94303 
 C                    -5.89955   0.53687   4.18594 
 C                    -6.37363   0.36773   2.88435 
 H                    -7.44706   0.34214   2.68994 
 H                    -6.60706   0.64379   5.01079 
 Br                   -5.87537  -0.28615  -1.89241 
 H                     7.52454  -0.01473  -0.07653 
 H                     2.66679   0.08836   0.89635 
 
 Add virtual bond connecting atoms Br61       and H20        Dist= 5.13D+00.
 -----------------------------------
 Anthracene Transition State Product
 -----------------------------------
 Symbolic Z-matrix:
 Charge =  0 Multiplicity = 1
 Mn                   -1.44286   0.16026  -2.01412 
 C                    -2.20443   1.54882  -2.90891 
 O                    -2.68366   2.42731  -3.46349 
 C                    -2.21304  -1.07612  -3.10367 
 O                    -2.69804  -1.85971  -3.78172 
 C                    -0.01408   0.23546  -3.09485 
 N                    -0.60049  -1.44099  -0.81185 
 C                    -0.82342  -3.27125   0.71581 
 C                     0.55737  -3.36677   0.85296 
 C                     0.7252   -1.5913   -0.72767 
 H                    -1.48955  -3.94449   1.25661 
 H                     1.00241  -4.09964   1.52935 
 N                     0.0775   -0.17244   2.4041 
 C                    -1.05369  -0.19765   2.64732 
 C                    -2.45976  -0.23136   2.94445 
 C                    -3.12645  -1.4621    3.01383 
 C                    -4.49389  -1.48788   3.26678 
 C                    -3.15853   0.96659   3.1448 
 H                    -2.5722   -2.38909   2.86463 
 H                    -2.62937   1.91849   3.09601 
 N                    -0.59083   1.56154  -0.58857 
 C                    -0.80429   3.1413    1.19825 
 C                     0.5769    3.20654   1.34817 
 H                    -1.46646   3.7285    1.83564 
 C                    -1.3638   -2.28301  -0.09733 
 H                    -2.44255  -2.14076  -0.17604 
 C                    -1.34964   2.291     0.24463 
 H                    -2.42913   2.16919   0.14486 
 H                    -5.01736  -2.44419   3.31559 
 O                     0.86165   0.2873   -3.83871 
 C                     2.91235  -0.04746   0.58557 
 C                     5.69235  -0.04273   0.41158 
 C                     1.36924  -2.49754   0.12252 
 C                     2.85402  -2.5063    0.21569 
 C                     3.56205  -3.67493   0.08887 
 C                     4.98786  -3.68132   0.09599 
 C                     5.69088  -2.51399   0.19056 
 C                     5.00769  -1.26191   0.32192 
 C                     3.57322  -1.26107   0.38259 
 H                     3.02896  -4.61681  -0.06081 
 H                     5.51371  -4.63251  -0.00729 
 H                     6.783    -2.51728   0.16154 
 C                     3.58071   1.17889   0.56648 
 C                     5.01522   1.18024   0.5065 
 C                     5.70587   2.43375   0.56536 
 C                     5.00976   3.60611   0.64834 
 C                     3.58394   3.60941   0.64 
 C                     2.86897   2.43926   0.58848 
 H                     6.79801   2.43509   0.53708 
 H                     5.54131   4.55882   0.69009 
 H                     3.05653   4.56629   0.63458 
 C                     1.38429   2.45343   0.49431 
 H                     1.02578   3.82526   2.12808 
 C                     0.73572   1.68987  -0.48314 
 H                     1.34033   1.15471  -1.214 
 H                     1.33286  -0.9558   -1.37019 
 C                    -5.19354  -0.29487   3.45284 
 C                    -4.52569   0.92909   3.39758 
 H                    -5.07398   1.86057   3.54798 
 H                    -6.26798  -0.31941   3.64516 
 Br                   -3.72263   0.07153  -0.71897 
 H                     1.84487  -0.05936   0.78995 
 H                     6.78538  -0.04496   0.39399 
 
 Add virtual bond connecting atoms N7         and Mn1        Dist= 4.11D+00.
 Add virtual bond connecting atoms N21        and Mn1        Dist= 4.11D+00.
 Add virtual bond connecting atoms H11        and H19        Dist= 4.70D+00.
 Add virtual bond connecting atoms H24        and H20        Dist= 4.71D+00.
 Add virtual bond connecting atoms H62        and N13        Dist= 4.53D+00.
 -----------------------------------------
 Anthracene Transition State Initial Guess
 -----------------------------------------
 Symbolic Z-matrix:
 Charge =  0 Multiplicity = 1
 Mn                   -1.1588   -0.15297  -1.90129 
 C                    -1.91854   1.13633  -2.96747 
 O                    -2.2282    1.99625  -3.66007 
 C                    -1.89654  -1.59189  -2.77839 
 O                    -2.17413  -2.54661  -3.35126 
 C                     0.16666  -0.21706  -3.06832 
 N                    -0.17627  -1.7233   -0.62092 
 C                    -0.4016   -3.39645   1.07701 
 C                     0.96937  -3.35499   1.3243 
 C                     1.1466   -1.76101  -0.44283 
 H                    -1.0612   -4.05351   1.65133 
 H                     1.40688  -3.96668   2.11773 
 N                    -2.1834    0.03243   0.06489 
 C                    -2.66992   0.16413   1.10618 
 C                    -3.31281   0.32732   2.38841 
 C                    -2.57867   0.74201   3.50085 
 C                    -3.22096   0.91233   4.73322 
 C                    -4.67825   0.07346   2.50701 
 H                    -1.5176    0.93761   3.39097 
 H                    -5.23316  -0.25197   1.62884 
 N                    -0.17524   1.57713  -0.87465 
 C                    -0.36896   3.49857   0.53984 
 C                     1.00524   3.49583   0.77017 
 H                    -1.01852   4.23792   1.01053 
 C                    -0.93547  -2.55943   0.10609 
 H                    -2.01116  -2.54685  -0.08834 
 C                    -0.91994   2.51703  -0.27664 
 H                    -1.99912   2.46761  -0.447 
 H                    -2.65901   1.24449   5.60492 
 O                     1.0058   -0.2674   -3.86189 
 C                     3.3015    0.03592   0.68824 
 C                     6.09135   0.0333    0.73922 
 C                     1.78405  -2.52418   0.54551 
 C                     3.2639   -2.46398   0.72927 
 C                     3.98738  -3.62492   0.84408 
 C                     5.41232  -3.61317   0.96193 
 C                     6.10498  -2.43615   0.92354 
 C                     5.4068   -1.18939   0.7971 
 C                     3.96822  -1.1931    0.74356 
 H                     3.4687   -4.58855   0.81145 
 H                     5.94415  -4.56379   1.05477 
 H                     7.19927  -2.42176   0.98171 
 C                     3.9776    1.25276   0.53057 
 C                     5.41688   1.25071   0.58212 
 C                     6.12634   2.49627   0.48548 
 C                     5.44486   3.6662    0.32009 
 C                     4.01895   3.66655   0.21156 
 C                     3.2846    2.50757   0.30215 
 H                     7.22107   2.48616   0.54153 
 H                     5.98604   4.61509   0.24303 
 H                     3.50627   4.61225   0.01661 
 C                     1.80288   2.54696   0.12449 
 H                     1.45826   4.22263   1.45271 
 C                     1.14938   1.63848  -0.72274 
 H                     1.73778   0.92986  -1.30538 
 H                     1.74847  -1.15105  -1.12053 
 C                    -4.57937   0.66396   4.85534 
 C                    -5.306     0.24269   3.74714 
 H                    -6.3683    0.04836   3.84864 
 H                    -5.07854   0.79861   5.82681 
 Br                   -4.18717  -0.21593  -2.11218 
 H                     7.18621   0.03619   0.80502 
 H                     2.21445   0.04261   0.76267 
 

 GradGradGradGradGradGradGradGradGradGradGradGradGradGradGradGradGradGrad
 Berny optimization.
 Initialization pass.
                           ----------------------------
                           !    Initial Parameters    !
                           ! (Angstroms and Degrees)  !
 --------------------------                            --------------------------
 ! Name  Definition         TS        Reactant Product Derivative Info.         !
 --------------------------------------------------------------------------------
 ! R1    R(1,2)             1.8374    1.8363    1.819  estimate D2E/DX2         !
 ! R2    R(1,4)             1.8396    1.8367    1.819  estimate D2E/DX2         !
 ! R3    R(1,6)             1.7672    1.8193    1.7931 estimate D2E/DX2         !
 ! R4    R(1,7)             2.2518    2.1708    2.1723 estimate D2E/DX2         !
 ! R5    R(1,13)            2.2249    2.0185    4.6843 estimate D2E/DX2         !
 ! R6    R(1,21)            2.2393    2.1713    2.173  estimate D2E/DX2         !
 ! R7    R(1,61)            3.0364    4.8943    2.6235 estimate D2E/DX2         !
 ! R8    R(2,3)             1.1468    1.1404    1.1441 estimate D2E/DX2         !
 ! R9    R(4,5)             1.1475    1.1403    1.1441 estimate D2E/DX2         !
 ! R10   R(6,30)            1.1561    1.145     1.1502 estimate D2E/DX2         !
 ! R11   R(7,10)            1.3353    1.3375    1.3368 estimate D2E/DX2         !
 ! R12   R(7,25)            1.3431    1.3435    1.3425 estimate D2E/DX2         !
 ! R13   R(8,9)             1.3937    1.3913    1.3909 estimate D2E/DX2         !
 ! R14   R(8,11)            1.0939    1.0901    1.0906 estimate D2E/DX2         !
 ! R15   R(8,25)            1.3886    1.3879    1.3892 estimate D2E/DX2         !
 ! R16   R(9,12)            1.0932    1.092     1.0921 estimate D2E/DX2         !
 ! R17   R(9,33)            1.4002    1.3964    1.3958 estimate D2E/DX2         !
 ! R18   R(10,33)           1.402     1.4006    1.3996 estimate D2E/DX2         !
 ! R19   R(10,56)           1.0925    1.0896    1.089  estimate D2E/DX2         !
 ! R20   R(11,19)           5.3053    4.6547    2.4854 estimate D2E/DX2         !
 ! R21   R(13,14)           1.1569    1.1543    1.1573 estimate D2E/DX2         !
 ! R22   R(13,62)           9.3988    9.8989    2.3962 estimate D2E/DX2         !
 ! R23   R(14,15)           1.4436    1.4314    1.4375 estimate D2E/DX2         !
 ! R24   R(15,16)           1.3959    1.4049    1.4014 estimate D2E/DX2         !
 ! R25   R(15,18)           1.3939    1.4028    1.4013 estimate D2E/DX2         !
 ! R26   R(16,17)           1.4001    1.3898    1.3909 estimate D2E/DX2         !
 ! R27   R(16,19)           1.0845    1.0913    1.0903 estimate D2E/DX2         !
 ! R28   R(17,29)           1.089     1.0912    1.0913 estimate D2E/DX2         !
 ! R29   R(17,57)           1.3863    1.397     1.3955 estimate D2E/DX2         !
 ! R30   R(18,20)           1.0886    1.0947    1.0902 estimate D2E/DX2         !
 ! R31   R(18,58)           1.4002    1.3915    1.3908 estimate D2E/DX2         !
 ! R32   R(20,24)           6.1891    6.7252    2.4934 estimate D2E/DX2         !
 ! R33   R(20,61)           3.8847    2.7148    4.3773 estimate D2E/DX2         !
 ! R34   R(21,27)           1.34      1.3435    1.3424 estimate D2E/DX2         !
 ! R35   R(21,54)           1.3347    1.3376    1.3369 estimate D2E/DX2         !
 ! R36   R(22,23)           1.3934    1.3913    1.3908 estimate D2E/DX2         !
 ! R37   R(22,24)           1.0909    1.0901    1.0907 estimate D2E/DX2         !
 ! R38   R(22,27)           1.3906    1.3879    1.3892 estimate D2E/DX2         !
 ! R39   R(23,52)           1.3977    1.3965    1.3958 estimate D2E/DX2         !
 ! R40   R(23,53)           1.0951    1.092     1.092  estimate D2E/DX2         !
 ! R41   R(25,26)           1.0932    1.0889    1.0909 estimate D2E/DX2         !
 ! R42   R(27,28)           1.0937    1.0889    1.0909 estimate D2E/DX2         !
 ! R43   R(31,39)           1.3993    1.3963    1.3967 estimate D2E/DX2         !
 ! R44   R(31,43)           1.401     1.3962    1.3968 estimate D2E/DX2         !
 ! R45   R(31,62)           3.8865    3.8738    1.0869 estimate D2E/DX2         !
 ! R46   R(31,63)           1.0896    1.0862    3.8778 estimate D2E/DX2         !
 ! R47   R(32,38)           1.4025    1.401     1.4011 estimate D2E/DX2         !
 ! R48   R(32,44)           1.4006    1.401     1.4011 estimate D2E/DX2         !
 ! R49   R(32,62)           1.0968    1.0931    3.8661 estimate D2E/DX2         !
 ! R50   R(32,63)           3.877     3.8643    1.0932 estimate D2E/DX2         !
 ! R51   R(33,34)           1.4924    1.4876    1.4877 estimate D2E/DX2         !
 ! R52   R(34,35)           1.3727    1.372     1.3723 estimate D2E/DX2         !
 ! R53   R(34,39)           1.4531    1.4468    1.4477 estimate D2E/DX2         !
 ! R54   R(35,36)           1.4299    1.4257    1.4258 estimate D2E/DX2         !
 ! R55   R(35,40)           1.0948    1.0926    1.0926 estimate D2E/DX2         !
 ! R56   R(36,37)           1.3662    1.3659    1.366  estimate D2E/DX2         !
 ! R57   R(36,41)           1.0932    1.0916    1.0918 estimate D2E/DX2         !
 ! R58   R(37,38)           1.4345    1.4322    1.4324 estimate D2E/DX2         !
 ! R59   R(37,42)           1.0959    1.0924    1.0925 estimate D2E/DX2         !
 ! R60   R(38,39)           1.4396    1.4355    1.4358 estimate D2E/DX2         !
 ! R61   R(43,44)           1.4402    1.4356    1.4358 estimate D2E/DX2         !
 ! R62   R(43,48)           1.4515    1.4469    1.4476 estimate D2E/DX2         !
 ! R63   R(44,45)           1.4367    1.4322    1.4324 estimate D2E/DX2         !
 ! R64   R(45,46)           1.364     1.3659    1.366  estimate D2E/DX2         !
 ! R65   R(45,49)           1.0962    1.0924    1.0925 estimate D2E/DX2         !
 ! R66   R(46,47)           1.43      1.4257    1.4258 estimate D2E/DX2         !
 ! R67   R(46,50)           1.0951    1.0916    1.0918 estimate D2E/DX2         !
 ! R68   R(47,48)           1.375     1.3722    1.3723 estimate D2E/DX2         !
 ! R69   R(47,51)           1.0933    1.0926    1.0926 estimate D2E/DX2         !
 ! R70   R(48,52)           1.4929    1.4877    1.4877 estimate D2E/DX2         !
 ! R71   R(52,54)           1.4036    1.4006    1.3997 estimate D2E/DX2         !
 ! R72   R(54,55)           1.0899    1.0894    1.0891 estimate D2E/DX2         !
 ! R73   R(57,58)           1.3905    1.3955    1.3954 estimate D2E/DX2         !
 ! R74   R(57,60)           1.1005    1.092     1.0918 estimate D2E/DX2         !
 ! R75   R(58,59)           1.0847    1.0912    1.0913 estimate D2E/DX2         !
 ! A1    A(2,1,4)          96.1066   92.8602   92.6906 estimate D2E/DX2         !
 ! A2    A(2,1,6)          87.2707   89.4398   90.2928 estimate D2E/DX2         !
 ! A3    L(2,1,7,4,-1)    180.4023  181.5632  182.3854 estimate D2E/DX2         !
 ! A4    L(2,1,7,4,-2)    178.5574  182.4131  183.4865 estimate D2E/DX2         !
 ! A5    A(2,1,13)        105.3012   90.4629  130.8496 estimate D2E/DX2         !
 ! A6    A(2,1,21)         84.5782   89.035    89.6911 estimate D2E/DX2         !
 ! A7    A(2,1,61)         64.015    56.7659   84.5395 estimate D2E/DX2         !
 ! A8    A(4,1,6)          87.5677   89.3883   90.279  estimate D2E/DX2         !
 ! A9    A(4,1,7)          84.2956   88.703    89.6949 estimate D2E/DX2         !
 ! A10   A(4,1,13)        107.5684   90.8132  130.8505 estimate D2E/DX2         !
 ! A11   L(4,1,21,2,-1)   180.6848  181.8953  182.3816 estimate D2E/DX2         !
 ! A12   L(4,1,21,2,-2)   182.4045  177.8035  176.5025 estimate D2E/DX2         !
 ! A13   A(4,1,61)         63.3001   55.3068   84.5361 estimate D2E/DX2         !
 ! A14   A(6,1,7)          91.3146   92.9897   93.1816 estimate D2E/DX2         !
 ! A15   L(6,1,13,2,-1)   192.5719  179.9027  221.1424 estimate D2E/DX2         !
 ! A16   L(6,1,13,2,-2)   197.379   180.197   245.2912 estimate D2E/DX2         !
 ! A17   A(6,1,21)         90.0773   92.827    93.2059 estimate D2E/DX2         !
 ! A18   L(6,1,61,2,-1)   151.2856  146.2057  174.8323 estimate D2E/DX2         !
 ! A19   L(6,1,61,2,-2)   143.5584  133.7926  174.5395 estimate D2E/DX2         !
 ! A20   A(7,1,13)         75.9107   87.1023   45.5557 estimate D2E/DX2         !
 ! A21   A(7,1,21)         94.9599   89.3121   87.7196 estimate D2E/DX2         !
 ! A22   A(7,1,61)        117.4005  122.615    92.2245 estimate D2E/DX2         !
 ! A23   A(13,1,21)        74.4985   86.9744   45.554  estimate D2E/DX2         !
 ! A24   A(21,1,61)       119.0731  124.4079   92.2164 estimate D2E/DX2         !
 ! A25   L(1,2,3,18,-1)   186.1134  181.2299  179.5621 estimate D2E/DX2         !
 ! A26   L(1,2,3,22,-1)   176.7166  179.0518  179.5279 estimate D2E/DX2         !
 ! A27   L(1,2,3,18,-2)   172.736   178.8291  179.7608 estimate D2E/DX2         !
 ! A28   L(1,2,3,22,-2)   171.6856  178.5473  180.1171 estimate D2E/DX2         !
 ! A29   L(1,4,5,8,-1)    176.873   178.9781  179.5473 estimate D2E/DX2         !
 ! A30   L(1,4,5,8,-2)    189.3221  181.8662  179.8672 estimate D2E/DX2         !
 ! A31   L(1,6,30,10,-1)  181.5219  181.4747  182.6714 estimate D2E/DX2         !
 ! A32   L(1,6,30,10,-2)  178.5116  178.99    178.0594 estimate D2E/DX2         !
 ! A33   A(1,7,10)        121.8554  121.4044  120.1501 estimate D2E/DX2         !
 ! A34   A(1,7,25)        119.6868  121.1552  122.4403 estimate D2E/DX2         !
 ! A35   A(10,7,25)       118.047   117.3369  117.3751 estimate D2E/DX2         !
 ! A36   A(9,8,11)        121.1882  121.2244  121.0019 estimate D2E/DX2         !
 ! A37   A(9,8,25)        118.967   119.2911  119.5213 estimate D2E/DX2         !
 ! A38   A(11,8,25)       119.8231  119.4687  119.4588 estimate D2E/DX2         !
 ! A39   A(8,9,12)        120.3853  120.7321  120.7784 estimate D2E/DX2         !
 ! A40   A(8,9,33)        119.4269  118.9955  118.8861 estimate D2E/DX2         !
 ! A41   A(12,9,33)       120.1877  120.2701  120.331  estimate D2E/DX2         !
 ! A42   A(7,10,33)       124.0434  124.3771  124.5675 estimate D2E/DX2         !
 ! A43   A(7,10,56)       116.5685  116.7619  116.7806 estimate D2E/DX2         !
 ! A44   A(33,10,56)      119.3881  118.8603  118.6518 estimate D2E/DX2         !
 ! A45   A(8,11,19)        70.059    86.7094  101.5699 estimate D2E/DX2         !
 ! A46   L(1,13,14,8,-1)  180.2414  181.4217  143.4264 estimate D2E/DX2         !
 ! A47   L(1,13,14,8,-2)  176.9746  180.9146  272.8095 estimate D2E/DX2         !
 ! A48   A(14,13,62)      110.3844  135.1856  149.7131 estimate D2E/DX2         !
 ! A49   L(13,14,15,11,-1)  180.5481  178.6485  179.8378 estimate D2E/DX2       !
 ! A50   L(13,14,15,1,-1)  180.8842  179.3423  179.8053 estimate D2E/DX2        !
 ! A51   L(13,14,15,11,-2)  181.4946  177.655  180.1544 estimate D2E/DX2        !
 ! A52   L(13,14,15,1,-2)  127.9804  323.0409  179.8888 estimate D2E/DX2        !
 ! A53   A(14,15,16)      120.4786  118.8297  119.745  estimate D2E/DX2         !
 ! A54   A(14,15,18)      119.4214  119.8879  119.8197 estimate D2E/DX2         !
 ! A55   A(16,15,18)      120.0992  121.2822  120.4296 estimate D2E/DX2         !
 ! A56   A(15,16,17)      119.7584  119.0657  119.537  estimate D2E/DX2         !
 ! A57   A(15,16,19)      119.1697  120.1746  119.8713 estimate D2E/DX2         !
 ! A58   A(17,16,19)      121.0686  120.7597  120.591  estimate D2E/DX2         !
 ! A59   A(16,17,29)      120.3271  119.7748  119.7337 estimate D2E/DX2         !
 ! A60   A(16,17,57)      120.3483  119.9927  120.0872 estimate D2E/DX2         !
 ! A61   A(29,17,57)      119.3243  120.2326  120.1787 estimate D2E/DX2         !
 ! A62   A(15,18,20)      119.0223  119.4873  119.8693 estimate D2E/DX2         !
 ! A63   A(15,18,58)      119.5061  118.7694  119.546  estimate D2E/DX2         !
 ! A64   A(20,18,58)      121.4716  121.7433  120.5838 estimate D2E/DX2         !
 ! A65   A(11,19,16)       87.0031  112.1661  147.3575 estimate D2E/DX2         !
 ! A66   A(18,20,24)       61.0913   62.7598  151.9875 estimate D2E/DX2         !
 ! A67   A(18,20,61)      129.5574  162.5838   63.2149 estimate D2E/DX2         !
 ! A68   A(1,21,27)       120.16    121.2128  122.409  estimate D2E/DX2         !
 ! A69   A(1,21,54)       121.5736  121.3339  120.1792 estimate D2E/DX2         !
 ! A70   A(27,21,54)      117.9372  117.3326  117.3719 estimate D2E/DX2         !
 ! A71   A(23,22,24)      121.1471  121.2226  120.9754 estimate D2E/DX2         !
 ! A72   A(23,22,27)      119.1078  119.2873  119.5087 estimate D2E/DX2         !
 ! A73   A(24,22,27)      119.7222  119.4755  119.497  estimate D2E/DX2         !
 ! A74   A(22,23,52)      119.1966  119.0084  118.8945 estimate D2E/DX2         !
 ! A75   A(22,23,53)      120.6435  120.7383  120.7806 estimate D2E/DX2         !
 ! A76   A(52,23,53)      120.1588  120.2517  120.3201 estimate D2E/DX2         !
 ! A77   A(20,24,22)       87.5307   87.5038  100.821  estimate D2E/DX2         !
 ! A78   A(7,25,8)        122.4375  122.7164  122.4501 estimate D2E/DX2         !
 ! A79   A(7,25,26)       116.921   116.9941  116.2352 estimate D2E/DX2         !
 ! A80   A(8,25,26)       120.6361  120.2893  121.3081 estimate D2E/DX2         !
 ! A81   A(21,27,22)      122.4753  122.7187  122.4637 estimate D2E/DX2         !
 ! A82   A(21,27,28)      116.5628  116.996   116.2248 estimate D2E/DX2         !
 ! A83   A(22,27,28)      120.9533  120.2851  121.3045 estimate D2E/DX2         !
 ! A84   A(39,31,43)      122.5063  122.5723  122.3093 estimate D2E/DX2         !
 ! A85   A(39,31,62)       61.486    61.4914  118.8492 estimate D2E/DX2         !
 ! A86   A(39,31,63)      118.5571  118.7182   61.3666 estimate D2E/DX2         !
 ! A87   A(43,31,62)       61.3762   61.4953  118.8238 estimate D2E/DX2         !
 ! A88   A(43,31,63)      118.9347  118.7067   61.3697 estimate D2E/DX2         !
 ! A89   A(38,32,44)      121.8277  121.9166  121.8486 estimate D2E/DX2         !
 ! A90   A(38,32,62)      119.1465  119.0443   61.0678 estimate D2E/DX2         !
 ! A91   A(38,32,63)       60.9058   61.0778  119.0633 estimate D2E/DX2         !
 ! A92   A(44,32,62)      119.0204  119.0318   61.0645 estimate D2E/DX2         !
 ! A93   A(44,32,63)       61.1215   61.068   119.0833 estimate D2E/DX2         !
 ! A94   A(9,33,10)       116.7789  117.0675  116.9662 estimate D2E/DX2         !
 ! A95   A(9,33,34)       122.167   122.5908  122.9607 estimate D2E/DX2         !
 ! A96   A(10,33,34)      121.0433  120.3387  120.073  estimate D2E/DX2         !
 ! A97   A(33,34,35)      119.9199  120.9546  120.9417 estimate D2E/DX2         !
 ! A98   A(33,34,39)      121.139   119.8331  119.8661 estimate D2E/DX2         !
 ! A99   A(35,34,39)      118.9069  119.1791  119.1341 estimate D2E/DX2         !
 ! A100  A(34,35,36)      121.6798  121.2786  121.2856 estimate D2E/DX2         !
 ! A101  A(34,35,40)      119.4839  119.6689  119.674  estimate D2E/DX2         !
 ! A102  A(36,35,40)      118.8041  119.0134  118.9947 estimate D2E/DX2         !
 ! A103  A(35,36,37)      120.664   120.7171  120.7422 estimate D2E/DX2         !
 ! A104  A(35,36,41)      118.9899  119.0123  119.0173 estimate D2E/DX2         !
 ! A105  A(37,36,41)      120.3231  120.2457  120.2125 estimate D2E/DX2         !
 ! A106  A(36,37,38)      120.2964  120.5328  120.5232 estimate D2E/DX2         !
 ! A107  A(36,37,42)      121.0669  120.6705  120.6689 estimate D2E/DX2         !
 ! A108  A(38,37,42)      118.6356  118.7953  118.8069 estimate D2E/DX2         !
 ! A109  A(32,38,37)      121.5863  122.24    122.2362 estimate D2E/DX2         !
 ! A110  A(32,38,39)      119.2406  118.9991  119.0121 estimate D2E/DX2         !
 ! A111  A(37,38,39)      119.1693  118.758   118.7457 estimate D2E/DX2         !
 ! A112  A(31,39,34)      122.469   122.1059  121.9443 estimate D2E/DX2         !
 ! A113  A(31,39,38)      118.3811  118.4984  118.6455 estimate D2E/DX2         !
 ! A114  A(34,39,38)      119.1437  119.389   119.4053 estimate D2E/DX2         !
 ! A115  A(31,43,44)      118.4908  118.4837  118.6513 estimate D2E/DX2         !
 ! A116  A(31,43,48)      122.5594  122.1247  121.9344 estimate D2E/DX2         !
 ! A117  A(44,43,48)      118.9456  119.3848  119.4097 estimate D2E/DX2         !
 ! A118  A(32,44,43)      119.1108  119.0099  119.0034 estimate D2E/DX2         !
 ! A119  A(32,44,45)      121.5555  122.2187  122.2494 estimate D2E/DX2         !
 ! A120  A(43,44,45)      119.3305  118.7686  118.7409 estimate D2E/DX2         !
 ! A121  A(44,45,46)      120.335   120.528   120.5213 estimate D2E/DX2         !
 ! A122  A(44,45,49)      118.797   118.7904  118.817  estimate D2E/DX2         !
 ! A123  A(46,45,49)      120.8672  120.6802  120.6609 estimate D2E/DX2         !
 ! A124  A(45,46,47)      120.5032  120.7068  120.7457 estimate D2E/DX2         !
 ! A125  A(45,46,50)      120.3206  120.2507  120.209  estimate D2E/DX2         !
 ! A126  A(47,46,50)      119.1578  119.0168  119.0169 estimate D2E/DX2         !
 ! A127  A(46,47,48)      121.8242  121.3037  121.2822 estimate D2E/DX2         !
 ! A128  A(46,47,51)      118.7729  118.9924  118.9961 estimate D2E/DX2         !
 ! A129  A(48,47,51)      119.3683  119.663   119.6765 estimate D2E/DX2         !
 ! A130  A(43,48,47)      118.9494  119.1567  119.1323 estimate D2E/DX2         !
 ! A131  A(43,48,52)      121.0238  119.9705  119.8668 estimate D2E/DX2         !
 ! A132  A(47,48,52)      119.9999  120.8346  120.9443 estimate D2E/DX2         !
 ! A133  A(23,52,48)      121.963   122.5636  122.9353 estimate D2E/DX2         !
 ! A134  A(23,52,54)      116.9068  117.0493  116.97   estimate D2E/DX2         !
 ! A135  A(48,52,54)      121.1219  120.3865  120.0947 estimate D2E/DX2         !
 ! A136  A(21,54,52)      124.0911  124.391   124.5567 estimate D2E/DX2         !
 ! A137  A(21,54,55)      116.427   116.7506  116.7927 estimate D2E/DX2         !
 ! A138  A(52,54,55)      119.4818  118.8579  118.6503 estimate D2E/DX2         !
 ! A139  A(17,57,58)      119.7427  120.597   120.3067 estimate D2E/DX2         !
 ! A140  A(17,57,60)      120.0201  119.6479  119.8457 estimate D2E/DX2         !
 ! A141  A(58,57,60)      120.2372  119.7552  119.8473 estimate D2E/DX2         !
 ! A142  A(18,58,57)      120.5431  120.2931  120.0864 estimate D2E/DX2         !
 ! A143  A(18,58,59)      120.019   119.4952  119.7296 estimate D2E/DX2         !
 ! A144  A(57,58,59)      119.4375  120.2117  120.1834 estimate D2E/DX2         !
 ! A145  A(13,62,31)        2.7949    8.5014  148.3802 estimate D2E/DX2         !
 ! D1    D(4,1,7,10)      125.5381  118.0929  116.3527 estimate D2E/DX2         !
 ! D2    D(4,1,7,25)      -61.9639  -65.7047  -65.8409 estimate D2E/DX2         !
 ! D3    D(6,1,7,10)       38.1146   28.7733   26.0902 estimate D2E/DX2         !
 ! D4    D(6,1,7,25)     -149.3874 -155.0243 -156.1034 estimate D2E/DX2         !
 ! D5    D(13,1,7,10)    -124.7174 -151.027   -86.5137 estimate D2E/DX2         !
 ! D6    D(13,1,7,25)      47.7806   25.1754   91.2927 estimate D2E/DX2         !
 ! D7    D(21,1,7,10)     -52.0771  -64.0218  -66.9962 estimate D2E/DX2         !
 ! D8    D(21,1,7,25)     120.4209  112.1806  110.8102 estimate D2E/DX2         !
 ! D9    D(61,1,7,10)    -178.545   164.4312 -159.1273 estimate D2E/DX2         !
 ! D10   D(61,1,7,25)      -6.047   -19.3665   18.679  estimate D2E/DX2         !
 ! D11   D(2,1,15,16)    -114.0439 -132.5668  117.3152 estimate D2E/DX2         !
 ! D12   D(2,1,15,18)      64.7855   46.8712   -7.0382 estimate D2E/DX2         !
 ! D13   D(4,1,15,16)     143.9019  134.5698    8.9434 estimate D2E/DX2         !
 ! D14   D(4,1,15,18)     -37.2687  -45.9921 -115.41   estimate D2E/DX2         !
 ! D15   D(7,1,15,16)      65.0318   45.9148  -62.8995 estimate D2E/DX2         !
 ! D16   D(7,1,15,18)    -116.1389 -134.6472  172.7471 estimate D2E/DX2         !
 ! D17   D(21,1,15,16)    -34.6386  -43.5417 -170.8879 estimate D2E/DX2         !
 ! D18   D(21,1,15,18)    144.1907  135.8964   64.7587 estimate D2E/DX2         !
 ! D19   D(2,1,21,27)      61.1346   64.9775   66.0092 estimate D2E/DX2         !
 ! D20   D(2,1,21,54)    -125.5899 -119.1227 -116.3481 estimate D2E/DX2         !
 ! D21   D(6,1,21,27)     148.3856  154.3689  156.2852 estimate D2E/DX2         !
 ! D22   D(6,1,21,54)     -38.3389  -29.7313  -26.0721 estimate D2E/DX2         !
 ! D23   D(7,1,21,27)    -120.2881 -112.6715 -110.6537 estimate D2E/DX2         !
 ! D24   D(7,1,21,54)      52.9874   63.2282   66.989  estimate D2E/DX2         !
 ! D25   D(13,1,21,27)    -46.4077  -25.5371  -91.1356 estimate D2E/DX2         !
 ! D26   D(13,1,21,54)    126.8678  150.3627   86.5071 estimate D2E/DX2         !
 ! D27   D(61,1,21,27)      4.9364   17.5031  -18.5141 estimate D2E/DX2         !
 ! D28   D(61,1,21,54)    178.2119 -166.5972  159.1286 estimate D2E/DX2         !
 ! D29   D(1,7,10,33)     166.1565  170.9989  173.1231 estimate D2E/DX2         !
 ! D30   D(1,7,10,56)     -13.8068   -8.6878   -6.7473 estimate D2E/DX2         !
 ! D31   D(25,7,10,33)     -6.4597   -5.3429   -4.7922 estimate D2E/DX2         !
 ! D32   D(25,7,10,56)    173.5771  174.9705  175.3374 estimate D2E/DX2         !
 ! D33   D(1,7,25,8)     -169.1139 -174.1697 -177.2166 estimate D2E/DX2         !
 ! D34   D(1,7,25,26)      10.0471    5.9781    1.8568 estimate D2E/DX2         !
 ! D35   D(10,7,25,8)       3.6677    2.1817    0.6474 estimate D2E/DX2         !
 ! D36   D(10,7,25,26)   -177.1714 -177.6705  179.7208 estimate D2E/DX2         !
 ! D37   D(11,8,9,12)      -1.4026   -1.589    -1.8553 estimate D2E/DX2         !
 ! D38   D(11,8,9,33)     178.4749  178.9627  178.9172 estimate D2E/DX2         !
 ! D39   D(25,8,9,12)     176.898   176.9571  176.5923 estimate D2E/DX2         !
 ! D40   D(25,8,9,33)      -3.2246   -2.4911   -2.6352 estimate D2E/DX2         !
 ! D41   D(9,8,11,19)     102.5737  128.0158  111.5414 estimate D2E/DX2         !
 ! D42   D(25,8,11,19)    -75.7125  -50.5278  -66.9071 estimate D2E/DX2         !
 ! D43   D(9,8,25,7)        1.0598    1.6357    2.9883 estimate D2E/DX2         !
 ! D44   D(9,8,25,26)    -178.0707 -178.5168 -176.0389 estimate D2E/DX2         !
 ! D45   D(11,8,25,7)     179.3841 -179.7923 -178.5399 estimate D2E/DX2         !
 ! D46   D(11,8,25,26)      0.2536    0.0552    2.4328 estimate D2E/DX2         !
 ! D47   D(8,9,33,10)       0.7482   -0.3199   -1.0696 estimate D2E/DX2         !
 ! D48   D(8,9,33,34)    -178.0692  179.0584  179.0325 estimate D2E/DX2         !
 ! D49   D(12,9,33,10)   -179.3741 -179.7707  179.6995 estimate D2E/DX2         !
 ! D50   D(12,9,33,34)      1.8085   -0.3925   -0.1985 estimate D2E/DX2         !
 ! D51   D(7,10,33,9)       4.2599    4.4392    5.015  estimate D2E/DX2         !
 ! D52   D(7,10,33,34)   -176.9084 -174.9538 -175.0839 estimate D2E/DX2         !
 ! D53   D(56,10,33,9)   -175.7778 -175.8802 -175.1168 estimate D2E/DX2         !
 ! D54   D(56,10,33,34)     3.0538    4.7267    4.7842 estimate D2E/DX2         !
 ! D55   D(8,11,19,16)    141.3965  117.7639   53.3578 estimate D2E/DX2         !
 ! D56   D(62,13,15,16)    13.7146    0.4233   89.7844 estimate D2E/DX2         !
 ! D57   D(62,13,15,18)  -166.8072 -179.8178  -89.249  estimate D2E/DX2         !
 ! D58   D(14,13,62,31)     6.5971    1.3918 -178.9573 estimate D2E/DX2         !
 ! D59   D(14,15,16,17)   179.1622  179.857  -178.3155 estimate D2E/DX2         !
 ! D60   D(14,15,16,19)    -0.1782   -0.1263    1.3773 estimate D2E/DX2         !
 ! D61   D(18,15,16,17)    -0.5141    0.0027    0.8132 estimate D2E/DX2         !
 ! D62   D(18,15,16,19)  -179.8545 -179.9806 -179.494  estimate D2E/DX2         !
 ! D63   D(14,15,18,20)     0.5015    0.1848   -1.3207 estimate D2E/DX2         !
 ! D64   D(14,15,18,58)  -179.433  -179.8524  178.3373 estimate D2E/DX2         !
 ! D65   D(16,15,18,20)  -179.8187 -179.9624  179.5513 estimate D2E/DX2         !
 ! D66   D(16,15,18,58)     0.2467    0.0003   -0.7907 estimate D2E/DX2         !
 ! D67   D(15,16,17,29)  -179.4266  179.998   179.6371 estimate D2E/DX2         !
 ! D68   D(15,16,17,57)     0.3703   -0.0077   -0.1502 estimate D2E/DX2         !
 ! D69   D(19,16,17,29)    -0.099    -0.0189   -0.0534 estimate D2E/DX2         !
 ! D70   D(19,16,17,57)   179.6979  179.9755 -179.8408 estimate D2E/DX2         !
 ! D71   D(15,16,19,11)   -57.3773  -64.5372  -76.5178 estimate D2E/DX2         !
 ! D72   D(17,16,19,11)   123.2912  115.4798  103.1717 estimate D2E/DX2         !
 ! D73   D(16,17,57,58)     0.0421    0.0098   -0.5324 estimate D2E/DX2         !
 ! D74   D(16,17,57,60)   179.9388 -179.988   179.6298 estimate D2E/DX2         !
 ! D75   D(29,17,57,58)   179.8411 -179.9959  179.6812 estimate D2E/DX2         !
 ! D76   D(29,17,57,60)    -0.2623    0.0063   -0.1566 estimate D2E/DX2         !
 ! D77   D(15,18,20,24)   -41.5148  -39.6752   72.2844 estimate D2E/DX2         !
 ! D78   D(15,18,20,61)   -13.1997    2.2233   79.8547 estimate D2E/DX2         !
 ! D79   D(58,18,20,24)   138.4184  140.3632 -107.37   estimate D2E/DX2         !
 ! D80   D(58,18,20,61)   166.7335 -177.7383  -99.7997 estimate D2E/DX2         !
 ! D81   D(15,18,58,57)     0.1685    0.0017    0.1052 estimate D2E/DX2         !
 ! D82   D(15,18,58,59)   179.9451  179.9964 -179.6257 estimate D2E/DX2         !
 ! D83   D(20,18,58,57)  -179.7644  179.9635  179.7607 estimate D2E/DX2         !
 ! D84   D(20,18,58,59)     0.0122   -0.0418    0.0298 estimate D2E/DX2         !
 ! D85   D(18,20,24,22)   104.9982  118.348   -46.9348 estimate D2E/DX2         !
 ! D86   D(1,21,27,22)    170.2126  173.7347  176.964  estimate D2E/DX2         !
 ! D87   D(1,21,27,28)     -8.7324   -6.4186   -2.0847 estimate D2E/DX2         !
 ! D88   D(54,21,27,22)    -3.3037   -2.3232   -0.7414 estimate D2E/DX2         !
 ! D89   D(54,21,27,28)   177.7513  177.5235 -179.79   estimate D2E/DX2         !
 ! D90   D(1,21,54,52)   -167.1127 -170.7064 -172.9049 estimate D2E/DX2         !
 ! D91   D(1,21,54,55)     13.0198    9.0522    6.903  estimate D2E/DX2         !
 ! D92   D(27,21,54,52)     6.3068    5.3464    4.8541 estimate D2E/DX2         !
 ! D93   D(27,21,54,55)  -173.5607 -174.895  -175.338  estimate D2E/DX2         !
 ! D94   D(24,22,23,52)  -178.7001 -178.8661 -178.9497 estimate D2E/DX2         !
 ! D95   D(24,22,23,53)     1.6673    1.5972    1.8437 estimate D2E/DX2         !
 ! D96   D(27,22,23,52)     3.0469    2.5283    2.6426 estimate D2E/DX2         !
 ! D97   D(27,22,23,53)  -176.5858 -177.0084 -176.5639 estimate D2E/DX2         !
 ! D98   D(23,22,24,20)  -142.2366 -167.1236 -114.2662 estimate D2E/DX2         !
 ! D99   D(27,22,24,20)    36.0059   11.4793   64.1416 estimate D2E/DX2         !
 ! D100  D(23,22,27,21)    -1.2651   -1.5128   -2.9271 estimate D2E/DX2         !
 ! D101  D(23,22,27,28)   177.6345  178.6454  176.0741 estimate D2E/DX2         !
 ! D102  D(24,22,27,21)  -179.5435  179.8569  178.6415 estimate D2E/DX2         !
 ! D103  D(24,22,27,28)    -0.6438    0.0151   -2.3573 estimate D2E/DX2         !
 ! D104  D(22,23,52,48)   178.5892 -179.5503 -179.0167 estimate D2E/DX2         !
 ! D105  D(22,23,52,54)    -0.3796    0.1582    1.0323 estimate D2E/DX2         !
 ! D106  D(53,23,52,48)    -1.7763   -0.0113    0.1935 estimate D2E/DX2         !
 ! D107  D(53,23,52,54)   179.2549  179.6972 -179.7574 estimate D2E/DX2         !
 ! D108  D(43,31,39,34)  -171.6685 -171.0588 -171.1073 estimate D2E/DX2         !
 ! D109  D(43,31,39,38)     7.4196    7.9929    8.0804 estimate D2E/DX2         !
 ! D110  D(62,31,39,34)  -178.6179 -178.5638   10.4416 estimate D2E/DX2         !
 ! D111  D(62,31,39,38)     0.4702    0.4878 -170.3707 estimate D2E/DX2         !
 ! D112  D(63,31,39,34)     7.8138    8.319  -178.7139 estimate D2E/DX2         !
 ! D113  D(63,31,39,38)  -173.0981 -172.6293    0.4738 estimate D2E/DX2         !
 ! D114  D(39,31,43,44)    -7.3134   -8.0368   -8.1047 estimate D2E/DX2         !
 ! D115  D(39,31,43,48)   171.9301  171.0122  171.1092 estimate D2E/DX2         !
 ! D116  D(62,31,43,44)    -0.3568   -0.532   170.3468 estimate D2E/DX2         !
 ! D117  D(62,31,43,48)   178.8868  178.517   -10.4393 estimate D2E/DX2         !
 ! D118  D(63,31,43,44)   173.2061  172.5853   -0.4984 estimate D2E/DX2         !
 ! D119  D(63,31,43,48)    -7.5503   -8.3657  178.7155 estimate D2E/DX2         !
 ! D120  D(39,31,62,13)    91.2558   86.7475   89.3766 estimate D2E/DX2         !
 ! D121  D(43,31,62,13)   -82.0689  -86.0571  -89.1292 estimate D2E/DX2         !
 ! D122  D(44,32,38,37)   178.3695  178.0761  178.3863 estimate D2E/DX2         !
 ! D123  D(44,32,38,39)    -2.3413   -2.5547   -2.5202 estimate D2E/DX2         !
 ! D124  D(62,32,38,37)    -0.7831   -0.9271 -175.4289 estimate D2E/DX2         !
 ! D125  D(62,32,38,39)   178.5062  178.4421    3.6647 estimate D2E/DX2         !
 ! D126  D(63,32,38,37)  -176.4374 -176.3626   -0.8107 estimate D2E/DX2         !
 ! D127  D(63,32,38,39)     2.8519    3.0066  178.2828 estimate D2E/DX2         !
 ! D128  D(38,32,44,43)     2.453     2.5098    2.496  estimate D2E/DX2         !
 ! D129  D(38,32,44,45)  -178.2066 -178.1172 -178.4259 estimate D2E/DX2         !
 ! D130  D(62,32,44,43)  -178.3934 -178.4869   -3.689  estimate D2E/DX2         !
 ! D131  D(62,32,44,45)     0.947     0.8861  175.3891 estimate D2E/DX2         !
 ! D132  D(63,32,44,43)    -2.7293   -3.052  -178.3071 estimate D2E/DX2         !
 ! D133  D(63,32,44,45)   176.6111  176.3211    0.771  estimate D2E/DX2         !
 ! D134  D(9,33,34,35)     46.2627   51.0888   50.1007 estimate D2E/DX2         !
 ! D135  D(9,33,34,39)   -135.8902 -131.0271 -132.6936 estimate D2E/DX2         !
 ! D136  D(10,33,34,35)  -132.5051 -129.5527 -129.7941 estimate D2E/DX2         !
 ! D137  D(10,33,34,39)    45.342    48.3314   47.4115 estimate D2E/DX2         !
 ! D138  D(33,34,35,36)   177.1935  176.8502  176.1599 estimate D2E/DX2         !
 ! D139  D(33,34,35,40)    -0.7155   -0.8529   -1.356  estimate D2E/DX2         !
 ! D140  D(39,34,35,36)    -0.7016   -1.0475   -1.0659 estimate D2E/DX2         !
 ! D141  D(39,34,35,40)  -178.6106 -178.7507 -178.5818 estimate D2E/DX2         !
 ! D142  D(33,34,39,31)     4.8823    5.0696    6.0886 estimate D2E/DX2         !
 ! D143  D(33,34,39,38)  -174.1991 -173.9738 -173.0931 estimate D2E/DX2         !
 ! D144  D(35,34,39,31)  -177.2492 -177.0086 -176.6552 estimate D2E/DX2         !
 ! D145  D(35,34,39,38)     3.6694    3.9479    4.1631 estimate D2E/DX2         !
 ! D146  D(34,35,36,37)    -1.9656   -1.7539   -1.9335 estimate D2E/DX2         !
 ! D147  D(34,35,36,41)   179.7698 -179.946   179.9868 estimate D2E/DX2         !
 ! D148  D(40,35,36,37)   175.9572  175.9639  175.5989 estimate D2E/DX2         !
 ! D149  D(40,35,36,41)    -2.3074   -2.2281   -2.4808 estimate D2E/DX2         !
 ! D150  D(35,36,37,38)     1.5449    1.5673    1.7411 estimate D2E/DX2         !
 ! D151  D(35,36,37,42)  -178.0661 -177.994  -177.8964 estimate D2E/DX2         !
 ! D152  D(41,36,37,38)   179.7863  179.737   179.7978 estimate D2E/DX2         !
 ! D153  D(41,36,37,42)     0.1754    0.1757    0.1604 estimate D2E/DX2         !
 ! D154  D(36,37,38,32)  -179.2404 -179.2627 -179.5119 estimate D2E/DX2         !
 ! D155  D(36,37,38,39)     1.4699    1.3667    1.3922 estimate D2E/DX2         !
 ! D156  D(42,37,38,32)     0.3799    0.3067    0.1322 estimate D2E/DX2         !
 ! D157  D(42,37,38,39)  -178.9098 -179.0639 -178.9637 estimate D2E/DX2         !
 ! D158  D(32,38,39,31)    -2.4844   -2.5673   -2.6519 estimate D2E/DX2         !
 ! D159  D(32,38,39,34)   176.6347  176.5107  176.5569 estimate D2E/DX2         !
 ! D160  D(37,38,39,31)   176.8222  176.824   176.4737 estimate D2E/DX2         !
 ! D161  D(37,38,39,34)    -4.0587   -4.0979   -4.3176 estimate D2E/DX2         !
 ! D162  D(31,43,44,32)     2.2562    2.6566    2.6995 estimate D2E/DX2         !
 ! D163  D(31,43,44,45)  -177.0991 -176.7383 -176.4112 estimate D2E/DX2         !
 ! D164  D(48,43,44,32)  -177.0152 -176.4191 -176.5346 estimate D2E/DX2         !
 ! D165  D(48,43,44,45)     3.6295    4.186     4.3546 estimate D2E/DX2         !
 ! D166  D(31,43,48,47)   177.3998  176.9457  176.5563 estimate D2E/DX2         !
 ! D167  D(31,43,48,52)    -4.4846   -5.2827   -6.1537 estimate D2E/DX2         !
 ! D168  D(44,43,48,47)    -3.3599   -4.0136   -4.2356 estimate D2E/DX2         !
 ! D169  D(44,43,48,52)   174.7557  173.758   173.0544 estimate D2E/DX2         !
 ! D170  D(32,44,45,46)   179.3766  179.2214  179.5474 estimate D2E/DX2         !
 ! D171  D(32,44,45,49)    -0.2881   -0.3466   -0.1163 estimate D2E/DX2         !
 ! D172  D(43,44,45,46)    -1.2844   -1.4041   -1.3722 estimate D2E/DX2         !
 ! D173  D(43,44,45,49)   179.0509  179.0279  178.9641 estimate D2E/DX2         !
 ! D174  D(44,45,46,47)    -1.3642   -1.6024   -1.7832 estimate D2E/DX2         !
 ! D175  D(44,45,46,50)  -179.791  -179.7387 -179.8274 estimate D2E/DX2         !
 ! D176  D(49,45,46,47)   178.2934  177.9574  177.8742 estimate D2E/DX2         !
 ! D177  D(49,45,46,50)    -0.1333   -0.1789   -0.1699 estimate D2E/DX2         !
 ! D178  D(45,46,47,48)     1.6545    1.8123    1.9391 estimate D2E/DX2         !
 ! D179  D(45,46,47,51)  -176.1897 -175.853  -175.6076 estimate D2E/DX2         !
 ! D180  D(50,46,47,48)  -179.9005  179.9713 -179.9938 estimate D2E/DX2         !
 ! D181  D(50,46,47,51)     2.2552    2.306     2.4595 estimate D2E/DX2         !
 ! D182  D(46,47,48,43)     0.7646    1.0412    1.1177 estimate D2E/DX2         !
 ! D183  D(46,47,48,52)  -177.3708 -176.7106 -176.1422 estimate D2E/DX2         !
 ! D184  D(51,47,48,43)   178.5964  178.691   178.648  estimate D2E/DX2         !
 ! D185  D(51,47,48,52)     0.461     0.9392    1.388  estimate D2E/DX2         !
 ! D186  D(43,48,52,23)   134.9688  131.8205  132.61   estimate D2E/DX2         !
 ! D187  D(43,48,52,54)   -46.1054  -47.8786  -47.4405 estimate D2E/DX2         !
 ! D188  D(47,48,52,23)   -46.9353  -50.4459  -50.15   estimate D2E/DX2         !
 ! D189  D(47,48,52,54)   131.9905  129.855   129.7995 estimate D2E/DX2         !
 ! D190  D(23,52,54,21)    -4.4767   -4.2914   -5.0121 estimate D2E/DX2         !
 ! D191  D(23,52,54,55)   175.387   175.9547  175.1833 estimate D2E/DX2         !
 ! D192  D(48,52,54,21)   176.5453  175.4238  175.0354 estimate D2E/DX2         !
 ! D193  D(48,52,54,55)    -3.5911   -4.3301   -4.7691 estimate D2E/DX2         !
 ! D194  D(17,57,58,18)    -0.3128   -0.0068    0.5552 estimate D2E/DX2         !
 ! D195  D(17,57,58,59)   179.9094  179.9986 -179.7151 estimate D2E/DX2         !
 ! D196  D(60,57,58,18)   179.7908  179.991  -179.607  estimate D2E/DX2         !
 ! D197  D(60,57,58,59)     0.0129   -0.0036    0.1226 estimate D2E/DX2         !
 --------------------------------------------------------------------------------
 Trust Radius=3.00D-01 FncErr=1.00D-07 GrdErr=1.00D-06 EigMax=2.50D+02 EigMin=1.00D-04
 Number of steps in this run=    378 maximum allowed number of steps=    378.
 Search for a saddle point of order  1.
 GradGradGradGradGradGradGradGradGradGradGradGradGradGradGradGradGradGrad

 Stoichiometry    C34H21BrMnN3O3
 Framework group  C1[X(C34H21BrMnN3O3)]
 Deg. of freedom   183
 Full point group                 C1      NOp   1
 Largest Abelian subgroup         C1      NOp   1
 Largest concise Abelian subgroup C1      NOp   1
                         Standard orientation:                         
 ---------------------------------------------------------------------
 Center     Atomic      Atomic             Coordinates (Angstroms)
 Number     Number       Type             X           Y           Z
 ---------------------------------------------------------------------
      1         25           0       -1.445929   -1.604918   -0.540562
      2          6           0       -2.293059   -1.992049   -2.124451
      3          8           0       -2.660155   -2.247893   -3.180314
      4          6           0       -2.249329   -2.936765    0.441678
      5          8           0       -2.570447   -3.827745    1.089567
      6          6           0       -0.219857   -2.790078   -1.004261
      7          7           0       -0.358634   -1.154156    1.379148
      8          6           0       -0.440902   -0.276876    3.605529
      9          6           0        0.945562   -0.135638    3.619786
     10          6           0        0.974433   -1.104699    1.439189
     11          1           0       -1.049955    0.025458    4.462435
     12          1           0        1.447725    0.303996    4.485621
     13          7           0       -2.307304    0.334724    0.127174
     14          6           0       -2.707640    1.371539    0.448241
     15          6           0       -3.244266    2.651888    0.844216
     16          6           0       -2.422870    3.779458    0.892703
     17          6           0       -2.962971    5.017315    1.261847
     18          6           0       -4.594892    2.756288    1.172590
     19          1           0       -1.374751    3.681529    0.631836
     20          1           0       -5.218766    1.865146    1.131679
     21          7           0       -0.386029   -0.036068   -1.736355
     22          6           0       -0.468316    2.050266   -2.907120
     23          6           0        0.920081    2.157772   -2.859540
     24          1           0       -1.079082    2.828348   -3.367195
     25          6           0       -1.054086   -0.778796    2.465184
     26          1           0       -2.142069   -0.871540    2.412668
     27          6           0       -1.081710    0.946788   -2.324252
     28          1           0       -2.171061    0.850864   -2.310268
     29          1           0       -2.332623    5.904800    1.293733
     30          8           0        0.551935   -3.594187   -1.311204
     31          6           0        3.210139    0.500454    0.183401
     32          6           0        5.994853    0.340898    0.107660
     33          6           0        1.692105   -0.564346    2.515544
     34          6           0        3.181861   -0.481252    2.482978
     35          6           0        3.915020   -0.904442    3.563619
     36          6           0        5.344790   -0.897064    3.550370
     37          6           0        6.029251   -0.501768    2.435974
     38          6           0        5.320172   -0.055930    1.271379
     39          6           0        3.882027   -0.000521    1.303961
     40          1           0        3.397667   -1.289900    4.448170
     41          1           0        5.884644   -1.240208    4.436908
     42          1           0        7.124605   -0.523324    2.407741
     43          6           0        3.868276    0.804736   -1.015323
     44          6           0        5.306977    0.745102   -1.043476
     45          6           0        6.003267    1.114193   -2.244743
     46          6           0        5.307837    1.491964   -3.355670
     47          6           0        3.877828    1.498083   -3.349636
     48          6           0        3.156030    1.160704   -2.228977
     49          1           0        7.098948    1.080657   -2.251502
     50          1           0        5.838711    1.769966   -4.272236
     51          1           0        3.348751    1.744923   -4.273944
     52          6           0        1.664669    1.123992   -2.284742
     53          1           0        1.425521    3.042478   -3.260988
     54          6           0        0.946424    0.029940   -1.777443
     55          1           0        1.487039   -0.832934   -1.388824
     56          1           0        1.517635   -1.516092    0.585214
     57          6           0       -4.306324    5.126645    1.586404
     58          6           0       -5.119868    3.999692    1.545376
     59          1           0       -6.169909    4.090603    1.801714
     60          1           0       -4.724966    6.102083    1.876785
     61         35           0       -4.481257   -1.600115   -0.461622
     62          1           0        7.091424    0.321536    0.093001
     63          1           0        2.132757    0.650721    0.246134
 ---------------------------------------------------------------------
 Rotational constants (GHZ):           0.0980860           0.0506338           0.0491018
 General basis read from cards:  (5D, 7F)
 There are   802 symmetry adapted cartesian basis functions of A   symmetry.
 There are   751 symmetry adapted basis functions of A   symmetry.
   751 basis functions,  1339 primitive gaussians,   802 cartesian basis functions
   165 alpha electrons      165 beta electrons
       nuclear repulsion energy      6023.0869937255 Hartrees.
 NAtoms=   63 NActive=   63 NUniq=   63 SFac= 1.00D+00 NAtFMM=   60 NAOKFM=T Big=T
 Integral buffers will be    131072 words long.
 Raffenetti 2 integral format.
 Two-electron integral symmetry is turned on.
 Nuclear repulsion after empirical dispersion term =     6023.0230114222 Hartrees.
 ------------------------------------------------------------------------------
 Polarizable Continuum Model (PCM)
 =================================
 Model                : PCM.
 Atomic radii         : UFF (Universal Force Field).
 Polarization charges : Total charges.
 Charge compensation  : None.
 Solution method      : On-the-fly selection.
 Cavity type          : Scaled VdW (van der Waals Surface) (Alpha=1.100).
 Cavity algorithm     : GePol (No added spheres)
                        Default sphere list used, NSphG=   63.
                        Lebedev-Laikov grids with approx.  5.0 points / Ang**2.
                        Smoothing algorithm: York/Karplus (Gamma=1.0000).
                        Polarization charges: spherical gaussians, with
                                              point-specific exponents (IZeta= 3).
                        Self-potential: point-specific (ISelfS= 7).
                        Self-field    : sphere-specific E.n sum rule (ISelfD= 2).
 1st derivatives      : Analytical E(r).r(x)/FMM algorithm (CHGder, D1EAlg=3).
                        Cavity 1st derivative terms included.
 Solvent              : TetraHydroFuran, Eps=   7.425700 Eps(inf)=   1.974025
 ------------------------------------------------------------------------------
 One-electron integrals computed using PRISM.
 PrsmSu:  requested number of processors reduced to:  11 ShMem   1 Linda.
 NBasis=   751 RedAO= T EigKep=  2.30D-04  NBF=   751
 NBsUse=   751 1.00D-06 EigRej= -1.00D+00 NBFU=   751
 ExpMin= 3.93D-02 ExpMax= 2.77D+05 ExpMxC= 1.70D+04 IAcc=3 IRadAn=         5 AccDes= 0.00D+00
 Harris functional with IExCor= 4639 and IRadAn=       5 diagonalized for initial guess.
 HarFok:  IExCor= 4639 AccDes= 0.00D+00 IRadAn=         5 IDoV= 1 UseB2=F ITyADJ=14
 ICtDFT=  3500011 ScaDFX=  1.000000  1.000000  1.000000  1.000000
 FoFCou: FMM=F IPFlag=           0 FMFlag=      100000 FMFlg1=        2001
         NFxFlg=           0 DoJE=T BraDBF=F KetDBF=T FulRan=T
         wScrn=  0.000000 ICntrl=       500 IOpCl=  0 I1Cent=   200000004 NGrid=           0
         NMat0=    1 NMatS0=      1 NMatT0=    0 NMatD0=    1 NMtDS0=    0 NMtDT0=    0
 Petite list used in FoFCou.
 Requested convergence on RMS density matrix=1.00D-08 within 128 cycles.
 Requested convergence on MAX density matrix=1.00D-06.
 Requested convergence on             energy=1.00D-06.
 No special actions if energy rises.
 CoulSu:  requested number of processors reduced to:   9 ShMem   1 Linda.
 Inv3:  Mode=1 IEnd=    68029932.
 Iteration    1 A*A^-1 deviation from unit magnitude is 4.00D-15 for   3121.
 Iteration    1 A*A^-1 deviation from orthogonality  is 3.04D-15 for   3047   2778.
 Iteration    1 A^-1*A deviation from unit magnitude is 4.00D-15 for   3121.
 Iteration    1 A^-1*A deviation from orthogonality  is 2.22D-15 for   4451   1465.
 CoulSu:  requested number of processors reduced to:   9 ShMem   1 Linda.
 CoulSu:  requested number of processors reduced to:   9 ShMem   1 Linda.
 Error on total polarization charges =  0.02031
 SCF Done:  E(RwB97XD) =  -5421.42961263     A.U. after   20 cycles
            NFock= 20  Conv=0.66D-08     -V/T= 2.0041

 **********************************************************************

            Population analysis using the SCF density.

 **********************************************************************

 Orbital symmetries:
       Occupied  (A) (A) (A) (A) (A) (A) (A) (A) (A) (A) (A) (A)
                 (A) (A) (A) (A) (A) (A) (A) (A) (A) (A) (A) (A)
                 (A) (A) (A) (A) (A) (A) (A) (A) (A) (A) (A) (A)
                 (A) (A) (A) (A) (A) (A) (A) (A) (A) (A) (A) (A)
                 (A) (A) (A) (A) (A) (A) (A) (A) (A) (A) (A) (A)
                 (A) (A) (A) (A) (A) (A) (A) (A) (A) (A) (A) (A)
                 (A) (A) (A) (A) (A) (A) (A) (A) (A) (A) (A) (A)
                 (A) (A) (A) (A) (A) (A) (A) (A) (A) (A) (A) (A)
                 (A) (A) (A) (A) (A) (A) (A) (A) (A) (A) (A) (A)
                 (A) (A) (A) (A) (A) (A) (A) (A) (A) (A) (A) (A)
                 (A) (A) (A) (A) (A) (A) (A) (A) (A) (A) (A) (A)
                 (A) (A) (A) (A) (A) (A) (A) (A) (A) (A) (A) (A)
                 (A) (A) (A) (A) (A) (A) (A) (A) (A) (A) (A) (A)
                 (A) (A) (A) (A) (A) (A) (A) (A) (A)
       Virtual   (A) (A) (A) (A) (A) (A) (A) (A) (A) (A) (A) (A)
                 (A) (A) (A) (A) (A) (A) (A) (A) (A) (A) (A) (A)
                 (A) (A) (A) (A) (A) (A) (A) (A) (A) (A) (A) (A)
                 (A) (A) (A) (A) (A) (A) (A) (A) (A) (A) (A) (A)
                 (A) (A) (A) (A) (A) (A) (A) (A) (A) (A) (A) (A)
                 (A) (A) (A) (A) (A) (A) (A) (A) (A) (A) (A) (A)
                 (A) (A) (A) (A) (A) (A) (A) (A) (A) (A) (A) (A)
                 (A) (A) (A) (A) (A) (A) (A) (A) (A) (A) (A) (A)
                 (A) (A) (A) (A) (A) (A) (A) (A) (A) (A) (A) (A)
                 (A) (A) (A) (A) (A) (A) (A) (A) (A) (A) (A) (A)
                 (A) (A) (A) (A) (A) (A) (A) (A) (A) (A) (A) (A)
                 (A) (A) (A) (A) (A) (A) (A) (A) (A) (A) (A) (A)
                 (A) (A) (A) (A) (A) (A) (A) (A) (A) (A) (A) (A)
                 (A) (A) (A) (A) (A) (A) (A) (A) (A) (A) (A) (A)
                 (A) (A) (A) (A) (A) (A) (A) (A) (A) (A) (A) (A)
                 (A) (A) (A) (A) (A) (A) (A) (A) (A) (A) (A) (A)
                 (A) (A) (A) (A) (A) (A) (A) (A) (A) (A) (A) (A)
                 (A) (A) (A) (A) (A) (A) (A) (A) (A) (A) (A) (A)
                 (A) (A) (A) (A) (A) (A) (A) (A) (A) (A) (A) (A)
                 (A) (A) (A) (A) (A) (A) (A) (A) (A) (A) (A) (A)
                 (A) (A) (A) (A) (A) (A) (A) (A) (A) (A) (A) (A)
                 (A) (A) (A) (A) (A) (A) (A) (A) (A) (A) (A) (A)
                 (A) (A) (A) (A) (A) (A) (A) (A) (A) (A) (A) (A)
                 (A) (A) (A) (A) (A) (A) (A) (A) (A) (A) (A) (A)
                 (A) (A) (A) (A) (A) (A) (A) (A) (A) (A) (A) (A)
                 (A) (A) (A) (A) (A) (A) (A) (A) (A) (A) (A) (A)
                 (A) (A) (A) (A) (A) (A) (A) (A) (A) (A) (A) (A)
                 (A) (A) (A) (A) (A) (A) (A) (A) (A) (A) (A) (A)
                 (A) (A) (A) (A) (A) (A) (A) (A) (A) (A) (A) (A)
                 (A) (A) (A) (A) (A) (A) (A) (A) (A) (A) (A) (A)
                 (A) (A) (A) (A) (A) (A) (A) (A) (A) (A) (A) (A)
                 (A) (A) (A) (A) (A) (A) (A) (A) (A) (A) (A) (A)
                 (A) (A) (A) (A) (A) (A) (A) (A) (A) (A) (A) (A)
                 (A) (A) (A) (A) (A) (A) (A) (A) (A) (A) (A) (A)
                 (A) (A) (A) (A) (A) (A) (A) (A) (A) (A) (A) (A)
                 (A) (A) (A) (A) (A) (A) (A) (A) (A) (A) (A) (A)
                 (A) (A) (A) (A) (A) (A) (A) (A) (A) (A) (A) (A)
                 (A) (A) (A) (A) (A) (A) (A) (A) (A) (A) (A) (A)
                 (A) (A) (A) (A) (A) (A) (A) (A) (A) (A) (A) (A)
                 (A) (A) (A) (A) (A) (A) (A) (A) (A) (A) (A) (A)
                 (A) (A) (A) (A) (A) (A) (A) (A) (A) (A) (A) (A)
                 (A) (A) (A) (A) (A) (A) (A) (A) (A) (A) (A) (A)
                 (A) (A) (A) (A) (A) (A) (A) (A) (A) (A) (A) (A)
                 (A) (A) (A) (A) (A) (A) (A) (A) (A) (A) (A) (A)
                 (A) (A) (A) (A) (A) (A) (A) (A) (A) (A) (A) (A)
                 (A) (A) (A) (A) (A) (A) (A) (A) (A) (A) (A) (A)
                 (A) (A) (A) (A) (A) (A) (A) (A) (A) (A) (A) (A)
                 (A) (A) (A) (A) (A) (A) (A) (A) (A) (A) (A) (A)
                 (A) (A) (A) (A) (A) (A) (A) (A) (A) (A)
 The electronic state is 1-A.
 Alpha  occ. eigenvalues -- -482.96128-235.69004 -62.54187 -56.34761 -56.34736
 Alpha  occ. eigenvalues --  -56.34719 -27.45706 -23.51571 -23.51507 -23.51044
 Alpha  occ. eigenvalues --  -19.32634 -19.32547 -19.32494 -14.49766 -14.49725
 Alpha  occ. eigenvalues --  -14.48183 -10.40666 -10.40631 -10.40231 -10.37571
 Alpha  occ. eigenvalues --  -10.36629 -10.36600 -10.36132 -10.36111 -10.35929
 Alpha  occ. eigenvalues --  -10.34413 -10.34393 -10.34282 -10.34249 -10.33680
 Alpha  occ. eigenvalues --  -10.33530 -10.33513 -10.33492 -10.33290 -10.33273
 Alpha  occ. eigenvalues --  -10.33148 -10.33105 -10.32831 -10.32819 -10.32793
 Alpha  occ. eigenvalues --  -10.32563 -10.32457 -10.32242 -10.32226 -10.32054
 Alpha  occ. eigenvalues --  -10.32020 -10.31954 -10.31949 -10.31802 -10.31794
 Alpha  occ. eigenvalues --   -8.70976  -6.52732  -6.52637  -6.52576  -3.25104
 Alpha  occ. eigenvalues --   -2.63237  -2.63223  -2.63172  -2.63097  -2.63092
 Alpha  occ. eigenvalues --   -2.10854  -2.10488  -2.09633  -1.21579  -1.21457
 Alpha  occ. eigenvalues --   -1.21039  -1.07850  -1.07562  -1.03508  -0.99961
 Alpha  occ. eigenvalues --   -0.98372  -0.97277  -0.94047  -0.92854  -0.91094
 Alpha  occ. eigenvalues --   -0.90424  -0.89419  -0.88769  -0.87123  -0.86441
 Alpha  occ. eigenvalues --   -0.84968  -0.84737  -0.81698  -0.76505  -0.76331
 Alpha  occ. eigenvalues --   -0.75463  -0.75050  -0.74954  -0.74820  -0.74038
 Alpha  occ. eigenvalues --   -0.72553  -0.72030  -0.69884  -0.68683  -0.67082
 Alpha  occ. eigenvalues --   -0.66051  -0.64436  -0.64369  -0.64187  -0.63674
 Alpha  occ. eigenvalues --   -0.63428  -0.62309  -0.61790  -0.60560  -0.59670
 Alpha  occ. eigenvalues --   -0.59610  -0.57634  -0.57425  -0.57352  -0.57012
 Alpha  occ. eigenvalues --   -0.56169  -0.55842  -0.55606  -0.55404  -0.55347
 Alpha  occ. eigenvalues --   -0.54897  -0.54559  -0.54459  -0.53917  -0.53893
 Alpha  occ. eigenvalues --   -0.53276  -0.53100  -0.52991  -0.52667  -0.52198
 Alpha  occ. eigenvalues --   -0.52157  -0.51626  -0.51178  -0.51020  -0.50868
 Alpha  occ. eigenvalues --   -0.50805  -0.50748  -0.49932  -0.49393  -0.49078
 Alpha  occ. eigenvalues --   -0.48361  -0.48240  -0.47422  -0.47071  -0.46902
 Alpha  occ. eigenvalues --   -0.46274  -0.45782  -0.44705  -0.44587  -0.43489
 Alpha  occ. eigenvalues --   -0.42765  -0.41703  -0.40833  -0.40511  -0.40300
 Alpha  occ. eigenvalues --   -0.39786  -0.39167  -0.37607  -0.36305  -0.36012
 Alpha  occ. eigenvalues --   -0.35653  -0.33606  -0.33399  -0.33144  -0.31947
 Alpha  occ. eigenvalues --   -0.31089  -0.29838  -0.29668  -0.27898  -0.26680
 Alpha virt. eigenvalues --   -0.02892  -0.00227   0.00518   0.00709   0.02043
 Alpha virt. eigenvalues --    0.02243   0.02476   0.03563   0.04428   0.05099
 Alpha virt. eigenvalues --    0.06011   0.06842   0.07758   0.08162   0.08856
 Alpha virt. eigenvalues --    0.09153   0.09413   0.09780   0.11612   0.11886
 Alpha virt. eigenvalues --    0.12603   0.13086   0.13338   0.13640   0.14013
 Alpha virt. eigenvalues --    0.14417   0.14692   0.15278   0.15418   0.16057
 Alpha virt. eigenvalues --    0.16399   0.16579   0.17350   0.18239   0.18807
 Alpha virt. eigenvalues --    0.18927   0.19571   0.19775   0.20394   0.20677
 Alpha virt. eigenvalues --    0.21000   0.21817   0.22063   0.22357   0.22761
 Alpha virt. eigenvalues --    0.22895   0.22979   0.23311   0.24645   0.25071
 Alpha virt. eigenvalues --    0.26513   0.27109   0.27504   0.28002   0.28672
 Alpha virt. eigenvalues --    0.29228   0.30008   0.30115   0.30440   0.30691
 Alpha virt. eigenvalues --    0.31359   0.31836   0.32247   0.32907   0.32990
 Alpha virt. eigenvalues --    0.33153   0.33293   0.34024   0.34148   0.34382
 Alpha virt. eigenvalues --    0.34469   0.35179   0.35517   0.35748   0.35914
 Alpha virt. eigenvalues --    0.36314   0.36522   0.36840   0.36907   0.37481
 Alpha virt. eigenvalues --    0.38262   0.38306   0.39058   0.39564   0.40049
 Alpha virt. eigenvalues --    0.40219   0.40662   0.41810   0.41889   0.42174
 Alpha virt. eigenvalues --    0.42419   0.42560   0.42635   0.43962   0.44382
 Alpha virt. eigenvalues --    0.44547   0.46117   0.46452   0.46971   0.47266
 Alpha virt. eigenvalues --    0.47565   0.48219   0.48347   0.48946   0.49355
 Alpha virt. eigenvalues --    0.50157   0.50187   0.51027   0.51252   0.51455
 Alpha virt. eigenvalues --    0.52278   0.52387   0.52748   0.52884   0.52997
 Alpha virt. eigenvalues --    0.53312   0.53421   0.54449   0.54494   0.55040
 Alpha virt. eigenvalues --    0.55116   0.55471   0.55871   0.56022   0.56278
 Alpha virt. eigenvalues --    0.56714   0.56974   0.57772   0.57934   0.58371
 Alpha virt. eigenvalues --    0.58691   0.58949   0.59701   0.60079   0.60428
 Alpha virt. eigenvalues --    0.60802   0.61392   0.61608   0.62182   0.62499
 Alpha virt. eigenvalues --    0.62969   0.63718   0.64143   0.64525   0.64686
 Alpha virt. eigenvalues --    0.65497   0.66134   0.66665   0.66958   0.67286
 Alpha virt. eigenvalues --    0.67753   0.68353   0.68484   0.68642   0.69108
 Alpha virt. eigenvalues --    0.69955   0.70224   0.70473   0.70982   0.71529
 Alpha virt. eigenvalues --    0.72001   0.72046   0.72256   0.72489   0.72657
 Alpha virt. eigenvalues --    0.72794   0.73157   0.73500   0.73563   0.73857
 Alpha virt. eigenvalues --    0.74470   0.74686   0.74993   0.75227   0.75377
 Alpha virt. eigenvalues --    0.75755   0.75991   0.76137   0.76645   0.76972
 Alpha virt. eigenvalues --    0.77097   0.77160   0.77443   0.78014   0.78659
 Alpha virt. eigenvalues --    0.79232   0.79315   0.79368   0.79742   0.80059
 Alpha virt. eigenvalues --    0.80315   0.80886   0.81162   0.81264   0.81946
 Alpha virt. eigenvalues --    0.81954   0.82513   0.82979   0.83104   0.83625
 Alpha virt. eigenvalues --    0.83892   0.84467   0.84853   0.85250   0.85553
 Alpha virt. eigenvalues --    0.85786   0.85871   0.86075   0.86876   0.87030
 Alpha virt. eigenvalues --    0.87677   0.87963   0.88636   0.88835   0.89574
 Alpha virt. eigenvalues --    0.90361   0.90622   0.90689   0.91075   0.91299
 Alpha virt. eigenvalues --    0.91811   0.92211   0.92697   0.93709   0.94130
 Alpha virt. eigenvalues --    0.94349   0.94889   0.95453   0.96305   0.96482
 Alpha virt. eigenvalues --    0.97369   0.97632   0.97691   0.97891   0.98583
 Alpha virt. eigenvalues --    0.99339   1.00419   1.01749   1.01888   1.02145
 Alpha virt. eigenvalues --    1.03141   1.03733   1.04227   1.05154   1.07128
 Alpha virt. eigenvalues --    1.08010   1.08612   1.09584   1.10697   1.11768
 Alpha virt. eigenvalues --    1.12208   1.13506   1.14510   1.15129   1.15522
 Alpha virt. eigenvalues --    1.16015   1.16396   1.16778   1.16922   1.17232
 Alpha virt. eigenvalues --    1.17931   1.18157   1.19285   1.21083   1.21589
 Alpha virt. eigenvalues --    1.22537   1.22972   1.24307   1.24959   1.25933
 Alpha virt. eigenvalues --    1.26323   1.26437   1.27389   1.27977   1.28193
 Alpha virt. eigenvalues --    1.28982   1.29656   1.29909   1.30009   1.30370
 Alpha virt. eigenvalues --    1.30517   1.30846   1.31543   1.31620   1.32014
 Alpha virt. eigenvalues --    1.32207   1.33406   1.33722   1.34291   1.34526
 Alpha virt. eigenvalues --    1.35085   1.35477   1.35768   1.35970   1.36042
 Alpha virt. eigenvalues --    1.36360   1.36567   1.37015   1.38325   1.38830
 Alpha virt. eigenvalues --    1.39103   1.39522   1.41232   1.41611   1.41845
 Alpha virt. eigenvalues --    1.42714   1.44028   1.44385   1.45007   1.46334
 Alpha virt. eigenvalues --    1.47229   1.47471   1.50406   1.50556   1.52124
 Alpha virt. eigenvalues --    1.54133   1.55191   1.55838   1.58880   1.59468
 Alpha virt. eigenvalues --    1.60130   1.61603   1.63146   1.64056   1.65380
 Alpha virt. eigenvalues --    1.66616   1.66874   1.67623   1.67897   1.68812
 Alpha virt. eigenvalues --    1.70783   1.71690   1.72536   1.72874   1.73111
 Alpha virt. eigenvalues --    1.73513   1.73755   1.73824   1.74323   1.74884
 Alpha virt. eigenvalues --    1.75188   1.76869   1.76896   1.77280   1.78143
 Alpha virt. eigenvalues --    1.78186   1.78301   1.79010   1.79104   1.79636
 Alpha virt. eigenvalues --    1.79831   1.80587   1.80684   1.80904   1.81168
 Alpha virt. eigenvalues --    1.81454   1.81570   1.81879   1.82019   1.82044
 Alpha virt. eigenvalues --    1.82278   1.82745   1.83035   1.83222   1.83596
 Alpha virt. eigenvalues --    1.83667   1.84089   1.84516   1.85246   1.85722
 Alpha virt. eigenvalues --    1.86004   1.86235   1.86779   1.87485   1.88076
 Alpha virt. eigenvalues --    1.88417   1.89414   1.89800   1.90118   1.90328
 Alpha virt. eigenvalues --    1.90852   1.90954   1.92194   1.92863   1.93746
 Alpha virt. eigenvalues --    1.94630   1.94962   1.95812   1.96118   1.96956
 Alpha virt. eigenvalues --    1.97289   1.97575   1.97942   1.99330   1.99445
 Alpha virt. eigenvalues --    2.00484   2.00723   2.01235   2.01446   2.02473
 Alpha virt. eigenvalues --    2.02913   2.02995   2.03648   2.03907   2.04241
 Alpha virt. eigenvalues --    2.05003   2.05440   2.05781   2.05907   2.06784
 Alpha virt. eigenvalues --    2.07788   2.08313   2.09110   2.09503   2.10092
 Alpha virt. eigenvalues --    2.10383   2.10892   2.11815   2.13728   2.14136
 Alpha virt. eigenvalues --    2.14598   2.15064   2.15827   2.16558   2.16859
 Alpha virt. eigenvalues --    2.17677   2.18212   2.18753   2.18821   2.19779
 Alpha virt. eigenvalues --    2.20352   2.20629   2.21029   2.21601   2.22941
 Alpha virt. eigenvalues --    2.23594   2.23804   2.24301   2.25295   2.26475
 Alpha virt. eigenvalues --    2.27113   2.29337   2.29619   2.30166   2.31153
 Alpha virt. eigenvalues --    2.31327   2.31818   2.32405   2.34062   2.34602
 Alpha virt. eigenvalues --    2.35022   2.36099   2.36511   2.36598   2.37303
 Alpha virt. eigenvalues --    2.37759   2.37866   2.38505   2.39169   2.39350
 Alpha virt. eigenvalues --    2.40128   2.40338   2.41658   2.42352   2.42629
 Alpha virt. eigenvalues --    2.43892   2.44797   2.45197   2.46035   2.46670
 Alpha virt. eigenvalues --    2.47695   2.48140   2.49840   2.50182   2.50520
 Alpha virt. eigenvalues --    2.53555   2.55075   2.56697   2.56972   2.59228
 Alpha virt. eigenvalues --    2.60303   2.60617   2.61339   2.63759   2.64342
 Alpha virt. eigenvalues --    2.65853   2.66072   2.66574   2.67433   2.67461
 Alpha virt. eigenvalues --    2.67832   2.68059   2.71039   2.71055   2.71387
 Alpha virt. eigenvalues --    2.71432   2.71472   2.71784   2.72076   2.72136
 Alpha virt. eigenvalues --    2.72411   2.72617   2.73757   2.74255   2.74453
 Alpha virt. eigenvalues --    2.75280   2.77807   2.79076   2.79352   2.79677
 Alpha virt. eigenvalues --    2.80098   2.80185   2.81578   2.81682   2.81956
 Alpha virt. eigenvalues --    2.84330   2.85273   2.86171   2.86210   2.86925
 Alpha virt. eigenvalues --    2.87482   2.89329   2.91345   2.91726   2.95555
 Alpha virt. eigenvalues --    2.95693   2.97277   2.97792   2.99090   3.00921
 Alpha virt. eigenvalues --    3.02637   3.04771   3.05747   3.06042   3.07203
 Alpha virt. eigenvalues --    3.07388   3.09236   3.09528   3.11530   3.12167
 Alpha virt. eigenvalues --    3.15465   3.15923   3.18930   3.19453   3.20315
 Alpha virt. eigenvalues --    3.20619   3.20828   3.22758   3.22883   3.24825
 Alpha virt. eigenvalues --    3.25768   3.30142   3.30786   3.32229   3.33928
 Alpha virt. eigenvalues --    3.37602   3.39480   3.41704   3.47107   3.48839
 Alpha virt. eigenvalues --    3.50226   3.50374   3.54757   3.58093   3.61295
 Alpha virt. eigenvalues --    3.61882   3.62737   3.63496   3.64326   3.65535
 Alpha virt. eigenvalues --    3.66376   3.67229   3.69677   3.71404   3.72056
 Alpha virt. eigenvalues --    3.76052   3.76722   3.77283   3.83478   3.83759
 Alpha virt. eigenvalues --    3.90262   3.94830   3.95220   4.00741   4.03561
 Alpha virt. eigenvalues --    4.14666
          Condensed to atoms (all electrons):
 Mulliken charges:
               1
     1  Mn  -0.648776
     2  C    0.336374
     3  O   -0.073250
     4  C    0.334443
     5  O   -0.075732
     6  C    0.305714
     7  N   -0.208639
     8  C   -0.040682
     9  C    0.040000
    10  C    0.090226
    11  H    0.062259
    12  H    0.054136
    13  N    0.083906
    14  C   -0.001858
    15  C   -0.153209
    16  C    0.028510
    17  C   -0.024524
    18  C    0.025043
    19  H    0.041412
    20  H    0.065547
    21  N   -0.205787
    22  C   -0.039483
    23  C    0.039339
    24  H    0.060709
    25  C    0.101900
    26  H    0.085254
    27  C    0.097744
    28  H    0.085254
    29  H    0.051279
    30  O   -0.096113
    31  C   -0.178333
    32  C   -0.084799
    33  C   -0.046024
    34  C    0.062537
    35  C   -0.066457
    36  C   -0.019579
    37  C   -0.019523
    38  C    0.014804
    39  C    0.080265
    40  H    0.036350
    41  H    0.043800
    42  H    0.033352
    43  C    0.081343
    44  C    0.014738
    45  C   -0.018931
    46  C   -0.020333
    47  C   -0.064726
    48  C    0.059076
    49  H    0.033644
    50  H    0.044746
    51  H    0.035432
    52  C   -0.046732
    53  H    0.055350
    54  C    0.092860
    55  H    0.059816
    56  H    0.062431
    57  C   -0.006080
    58  C   -0.020780
    59  H    0.051000
    60  H    0.059397
    61  Br  -0.816707
    62  H    0.022762
    63  H    0.044310
 Sum of Mulliken charges =  -0.00000
 Mulliken charges with hydrogens summed into heavy atoms:
               1
     1  Mn  -0.648776
     2  C    0.336374
     3  O   -0.073250
     4  C    0.334443
     5  O   -0.075732
     6  C    0.305714
     7  N   -0.208639
     8  C    0.021576
     9  C    0.094135
    10  C    0.152657
    13  N    0.083906
    14  C   -0.001858
    15  C   -0.153209
    16  C    0.069922
    17  C    0.026755
    18  C    0.090590
    21  N   -0.205787
    22  C    0.021225
    23  C    0.094689
    25  C    0.187155
    27  C    0.182998
    30  O   -0.096113
    31  C   -0.134024
    32  C   -0.062037
    33  C   -0.046024
    34  C    0.062537
    35  C   -0.030108
    36  C    0.024221
    37  C    0.013829
    38  C    0.014804
    39  C    0.080265
    43  C    0.081343
    44  C    0.014738
    45  C    0.014713
    46  C    0.024413
    47  C   -0.029295
    48  C    0.059076
    52  C   -0.046732
    54  C    0.152676
    57  C    0.053317
    58  C    0.030220
    61  Br  -0.816707
 Electronic spatial extent (au):  <R**2>=          24071.3083
 Charge=              0.0000 electrons
 Dipole moment (field-independent basis, Debye):
    X=             14.9339    Y=             15.1501    Z=              4.8322  Tot=             21.8151
 Quadrupole moment (field-independent basis, Debye-Ang):
   XX=           -279.6758   YY=           -253.3651   ZZ=           -226.1597
   XY=            -49.5432   XZ=            -17.2451   YZ=            -12.4351
 Traceless Quadrupole moment (field-independent basis, Debye-Ang):
   XX=            -26.6089   YY=             -0.2983   ZZ=             26.9072
   XY=            -49.5432   XZ=            -17.2451   YZ=            -12.4351
 Octapole moment (field-independent basis, Debye-Ang**2):
  XXX=            326.7481  YYY=            122.2997  ZZZ=             31.7781  XYY=           -112.0889
  XXY=            210.2255  XXZ=             79.8877  XZZ=             26.7252  YZZ=             20.9089
  YYZ=              9.2600  XYZ=            -59.7309
 Hexadecapole moment (field-independent basis, Debye-Ang**3):
 XXXX=         -17576.7294 YYYY=          -6257.5039 ZZZZ=          -5960.4843 XXXY=           -916.8975
 XXXZ=           -385.3621 YYYX=           -424.4425 YYYZ=            263.9439 ZZZX=             46.9707
 ZZZY=           -245.5493 XXYY=          -4189.3074 XXZZ=          -3770.0466 YYZZ=          -2183.9312
 XXYZ=            -70.4646 YYXZ=           -186.6989 ZZXY=             15.3064
 N-N= 6.023023011422D+03 E-N=-2.487501877109D+04  KE= 5.399228726798D+03
 PrsmSu:  requested number of processors reduced to:  11 ShMem   1 Linda.
 D1PCM: PCM CHGder 1st derivatives, ID1Alg=3 FixD1E=F DoIter=F DoCFld=F I1PDM=0.
 CoulSu:  requested number of processors reduced to:  10 ShMem   1 Linda.
 CoulSu:  requested number of processors reduced to:  10 ShMem   1 Linda.
[...]
   D52       -3.09040   0.03054   0.00000  -0.00276  -0.00290  -3.09329
   D53       -3.05173  -0.00464   0.00000  -0.00380  -0.00374  -3.05547
   D54        0.06180   0.00438   0.00000  -0.00680  -0.00694   0.05486
   D55       -2.34844  -0.00682   0.00000   0.02149   0.02153  -2.32690
   D56        0.64181  -0.01040   0.00000  -0.00449  -0.00413   0.63768
   D57       -2.35424  -0.01213   0.00000  -0.00409  -0.00372  -2.35796
   D58        3.04552   0.00274   0.00000   0.13441   0.13463  -3.10304
   D59       -3.02687  -0.00090   0.00000   0.00229   0.00236  -3.02451
   D60        0.10619   0.00082   0.00000   0.01561   0.01583   0.12202
   D61        0.02398  -0.00178   0.00000   0.00039   0.00041   0.02439
   D62       -3.12614  -0.00006   0.00000   0.01371   0.01388  -3.11227
   D63       -0.08787  -0.00039   0.00000  -0.00192  -0.00193  -0.08980
   D64        3.03402  -0.00169   0.00000  -0.00573  -0.00582   3.02820
   D65       -3.13729   0.00182   0.00000   0.00028   0.00031  -3.13698
   D66       -0.01540   0.00052   0.00000  -0.00353  -0.00359  -0.01899
   D67        3.12448   0.00110   0.00000   0.00385   0.00387   3.12835
   D68       -0.01121   0.00164   0.00000   0.00344   0.00347  -0.00774
   D69       -0.00850  -0.00056   0.00000  -0.00964  -0.00970  -0.01820
   D70        3.13900  -0.00002   0.00000  -0.01005  -0.01011   3.12889
   D71       -0.81148  -0.00713   0.00000  -0.00149  -0.00163  -0.81311
   D72        2.32149  -0.00540   0.00000   0.01200   0.01197   2.33346
   D73       -0.00994  -0.00018   0.00000  -0.00419  -0.00422  -0.01416
   D74        3.13589  -0.00046   0.00000  -0.00205  -0.00207   3.13382
   D75        3.13761   0.00036   0.00000  -0.00461  -0.00464   3.13297
   D76        0.00024   0.00009   0.00000  -0.00247  -0.00248  -0.00223
   D77       -0.29701  -0.00537   0.00000   0.01186   0.01143  -0.28557
   D78        0.09024  -0.00624   0.00000   0.00739   0.00740   0.09764
   D79        2.86448  -0.00401   0.00000   0.01565   0.01530   2.87978
   D80       -3.03146  -0.00488   0.00000   0.01119   0.01127  -3.02020
   D81       -0.00586   0.00094   0.00000   0.00281   0.00287  -0.00300
   D82       -3.13643   0.00007   0.00000   0.00218   0.00223  -3.13421
   D83        3.11609  -0.00037   0.00000  -0.00095  -0.00097   3.11512
   D84       -0.01448  -0.00124   0.00000  -0.00157  -0.00161  -0.01609
   D85        1.08189  -0.00634   0.00000  -0.01612  -0.01616   1.06573
   D86        3.03168  -0.00287   0.00000   0.01751   0.01752   3.04920
   D87       -0.09761   0.00090   0.00000   0.01491   0.01500  -0.08261
   D88       -0.03649  -0.00606   0.00000   0.00466   0.00462  -0.03187
   D89        3.11741  -0.00229   0.00000   0.00205   0.00211   3.11951
   D90       -2.95633   0.00522   0.00000  -0.02193  -0.02227  -2.97860
   D91        0.18340   0.00160   0.00000  -0.01500  -0.01504   0.16836
   D92        0.10792   0.00642   0.00000  -0.00897  -0.00917   0.09876
   D93       -3.03554   0.00281   0.00000  -0.00203  -0.00194  -3.03747
   D94       -3.11791   0.00299   0.00000   0.00369   0.00361  -3.11430
   D95        0.03748  -0.00064   0.00000   0.00247   0.00236   0.03984
   D96        0.05038   0.00261   0.00000  -0.00443  -0.00455   0.04583
   D97       -3.07742  -0.00102   0.00000  -0.00565  -0.00580  -3.08322
   D98       -1.92127  -0.00687   0.00000   0.00524   0.00509  -1.91618
   D99        1.19355  -0.00639   0.00000   0.01335   0.01325   1.20680
   D100      -0.04075   0.00334   0.00000   0.00190   0.00211  -0.03864
   D101       3.08805  -0.00058   0.00000   0.00461   0.00472   3.09278
   D102       3.12709   0.00310   0.00000  -0.00598  -0.00585   3.12124
   D103      -0.02729  -0.00082   0.00000  -0.00327  -0.00323  -0.03052
   D104      -3.11616  -0.00394   0.00000   0.00134   0.00112  -3.11504
   D105       0.01341  -0.00429   0.00000   0.00057   0.00046   0.01387
   D106       0.01168  -0.00033   0.00000   0.00255   0.00236   0.01404
   D107       3.14125  -0.00068   0.00000   0.00178   0.00170  -3.14023
   D108      -2.98778  -0.00401   0.00000   0.00449   0.00480  -2.98298
   D109       0.13184   0.00023   0.00000   0.00443   0.00455   0.13639
   D110      -3.11076  -0.00355   0.00000  -0.00002   0.00021  -3.11055
   D111       0.00886   0.00070   0.00000  -0.00009  -0.00004   0.00882
   D112       0.14519   0.00037   0.00000   0.00563   0.00576   0.15095
   D113      -3.01838   0.00462   0.00000   0.00556   0.00551  -3.01287
   D114      -0.13270   0.00151   0.00000  -0.00306  -0.00319  -0.13589
   D115       2.99223   0.00111   0.00000  -0.00169  -0.00184   2.99039
   D116      -0.00973   0.00263   0.00000   0.00113   0.00102  -0.00871
   D117       3.11520   0.00224   0.00000   0.00250   0.00237   3.11757
   D118       3.01755  -0.00326   0.00000  -0.00420  -0.00415   3.01340
   D119      -0.14071  -0.00365   0.00000  -0.00283  -0.00280  -0.14351
   D120      -1.41987   0.00417   0.00000   0.13842   0.13788  -1.28199
   D121       1.83909   0.00329   0.00000   0.14255   0.14205   1.98114
   D122       3.10717   0.00367   0.00000   0.00225   0.00225   3.10941
   D123      -0.04135   0.00228   0.00000   0.00005   0.00012  -0.04124
   D124      -0.01571   0.00073   0.00000  -0.00114  -0.00101  -0.01672
   D125       3.11896  -0.00065   0.00000  -0.00334  -0.00315   3.11581
   D126      -3.08442   0.00342   0.00000   0.00491   0.00486  -3.07955
   D127       0.05025   0.00203   0.00000   0.00270   0.00273   0.05298
   D128       0.04056   0.00105   0.00000   0.00156   0.00151   0.04207
   D129      -3.11012   0.00005   0.00000  -0.00079  -0.00083  -3.11094
   D130      -3.11978   0.00425   0.00000   0.00475   0.00459  -3.11519
   D131       0.01273   0.00325   0.00000   0.00239   0.00225   0.01498
   D132      -0.05093   0.00012   0.00000  -0.00108  -0.00109  -0.05202
   D133       3.08159  -0.00088   0.00000  -0.00343  -0.00343   3.07815
   D134       0.76105   0.01388   0.00000   0.00065   0.00059   0.76164
   D135      -2.43456   0.01859   0.00000   0.00009  -0.00023  -2.43479
   D136      -2.35086   0.00503   0.00000   0.00377   0.00392  -2.34694
   D137       0.73672   0.00973   0.00000   0.00321   0.00310   0.73982
   D138       3.07631   0.00176   0.00000  -0.00220  -0.00252   3.07379
   D139      -0.02059   0.00276   0.00000  -0.00212  -0.00236  -0.02295
   D140      -0.01241  -0.00361   0.00000  -0.00178  -0.00186  -0.01427
   D141      -3.10931  -0.00261   0.00000  -0.00170  -0.00169  -3.11101
   D142       0.09537   0.00170   0.00000   0.00583   0.00613   0.10150
   D143      -3.02403  -0.00235   0.00000   0.00587   0.00635  -3.01768
   D144      -3.09968   0.00627   0.00000   0.00508   0.00508  -3.09460
   D145       0.06410   0.00221   0.00000   0.00512   0.00531   0.06941
   D146      -0.03418   0.00184   0.00000  -0.00198  -0.00206  -0.03624
   D147      -3.14058   0.00104   0.00000  -0.00086  -0.00082  -3.14141
   D148       3.06315   0.00085   0.00000  -0.00206  -0.00223   3.06092
   D149      -0.04326   0.00005   0.00000  -0.00094  -0.00099  -0.04425
   D150       0.02724   0.00142   0.00000   0.00212   0.00222   0.02946
   D151      -3.10327  -0.00112   0.00000   0.00148   0.00161  -3.10166
   D152       3.13318   0.00222   0.00000   0.00100   0.00097   3.13416
   D153       0.00267  -0.00031   0.00000   0.00035   0.00036   0.00303
   D154      -3.12344  -0.00369   0.00000  -0.00070  -0.00057  -3.12401
   D155       0.02507  -0.00235   0.00000   0.00150   0.00157   0.02664
   D156       0.00727  -0.00120   0.00000  -0.00007   0.00003   0.00731
   D157      -3.12740   0.00014   0.00000   0.00214   0.00217  -3.12523
   D158      -0.04245  -0.00232   0.00000  -0.00293  -0.00301  -0.04546
   D159       3.07789   0.00216   0.00000  -0.00287  -0.00310   3.07478
   D160       3.09243  -0.00368   0.00000  -0.00510  -0.00512   3.08730
   D161      -0.07043   0.00080   0.00000  -0.00503  -0.00521  -0.07564
   D162       0.04402  -0.00361   0.00000  -0.00008   0.00001   0.04403
   D163      -3.08879  -0.00264   0.00000   0.00215   0.00222  -3.08657
   D164      -3.08144  -0.00320   0.00000  -0.00131  -0.00119  -3.08263
   D165       0.06894  -0.00224   0.00000   0.00092   0.00101   0.06995
   D166       3.09348   0.00399   0.00000  -0.00286  -0.00299   3.09050
   D167      -0.07978   0.00125   0.00000  -0.00238  -0.00264  -0.08242
   D168      -0.06493   0.00362   0.00000  -0.00150  -0.00164  -0.06657
   D169       3.04500   0.00089   0.00000  -0.00102  -0.00130   3.04370
   D170       3.12679   0.00063   0.00000   0.00271   0.00273   3.12953
   D171      -0.00687   0.00129   0.00000   0.00249   0.00248  -0.00439
   D172      -0.02387  -0.00038   0.00000   0.00036   0.00040  -0.02347
   D173       3.12566   0.00028   0.00000   0.00014   0.00014   3.12580
   D174      -0.02608   0.00149   0.00000  -0.00094  -0.00100  -0.02708
   D175      -3.13661   0.00093   0.00000  -0.00073  -0.00074  -3.13735
   D176       3.10743   0.00082   0.00000  -0.00071  -0.00074   3.10669
   D177      -0.00310   0.00026   0.00000  -0.00050  -0.00048  -0.00358
   D178       0.03069  -0.00016   0.00000   0.00040   0.00041   0.03110
   D179      -3.07128  -0.00059   0.00000  -0.00008   0.00001  -3.07127
   D180      -3.14158   0.00039   0.00000   0.00020   0.00016  -3.14142
   D181       0.03963  -0.00004   0.00000  -0.00029  -0.00024   0.03939
   D182       0.01563  -0.00246   0.00000   0.00075   0.00082   0.01645
   D183      -3.09415   0.00023   0.00000   0.00049   0.00072  -3.09343
   D184       3.11732  -0.00203   0.00000   0.00124   0.00123   3.11855
   D185       0.00754   0.00066   0.00000   0.00099   0.00113   0.00867
   D186       2.32038   0.00709   0.00000   0.00132   0.00127   2.32165
   D187      -0.80875   0.00738   0.00000   0.00210   0.00194  -0.80681
   D188      -0.85338   0.00428   0.00000   0.00167   0.00147  -0.85191
   D189       2.30068   0.00457   0.00000   0.00245   0.00214   2.30282
   D190      -0.09625  -0.00154   0.00000   0.00630   0.00658  -0.08967
   D191       3.04726   0.00217   0.00000  -0.00080  -0.00083   3.04643
   D192       3.03357  -0.00156   0.00000   0.00558   0.00597   3.03954
   D193      -0.10611   0.00215   0.00000  -0.00153  -0.00144  -0.10755
   D194       0.01860  -0.00119   0.00000   0.00101   0.00100   0.01960
   D195      -3.13407  -0.00031   0.00000   0.00164   0.00165  -3.13243
   D196      -3.12723  -0.00092   0.00000  -0.00114  -0.00116  -3.12839
   D197       0.00329  -0.00004   0.00000  -0.00051  -0.00051   0.00278
         Item               Value     Threshold  Converged?
 Maximum Force            0.044364     0.000450     NO 
 RMS     Force            0.009008     0.000300     NO 
 Maximum Displacement     0.300814     0.001800     NO 
 RMS     Displacement     0.036981     0.001200     NO 
 Predicted change in Energy=-2.893835D-03
 GradGradGradGradGradGradGradGradGradGradGradGradGradGradGradGradGradGrad

 Stoichiometry    C34H21BrMnN3O3
 Framework group  C1[X(C34H21BrMnN3O3)]
 Deg. of freedom   183
 Full point group                 C1      NOp   1
 Largest Abelian subgroup         C1      NOp   1
 Largest concise Abelian subgroup C1      NOp   1
                         Standard orientation:                         
 ---------------------------------------------------------------------
 Center     Atomic      Atomic             Coordinates (Angstroms)
 Number     Number       Type             X           Y           Z
 ---------------------------------------------------------------------
      1         25           0       -2.241902   -0.294506    1.138602
      2          6           0       -3.470168   -1.684088    1.191922
      3          8           0       -4.135816   -2.598514    1.320660
      4          6           0       -3.361451    0.780179    2.137813
      5          8           0       -4.058162    1.410436    2.782790
      6          6           0       -1.497046   -0.944171    2.632209
      7          7           0       -0.830220    1.320728    1.062037
      8          6           0       -0.308113    3.590215    0.509821
      9          6           0        1.052250    3.336211    0.642021
     10          6           0        0.472956    1.117362    1.281378
     11          1           0       -0.673119    4.569832    0.204651
     12          1           0        1.784524    4.117480    0.429013
     13          7           0       -2.333060    1.139085   -1.753372
     14          6           0       -1.315733    1.497484   -2.174591
     15          6           0       -0.001278    1.931228   -2.552049
     16          6           0        1.033573    0.987866   -2.594568
     17          6           0        2.339720    1.408802   -2.820355
     18          6           0        0.268142    3.291273   -2.764544
     19          1           0        0.811145   -0.070438   -2.455481
     20          1           0       -0.535223    4.028126   -2.727686
     21          7           0       -1.139600   -1.473037   -0.243355
     22          6           0       -1.036475   -2.449628   -2.425354
     23          6           0        0.302086   -2.782462   -2.237045
     24          1           0       -1.549885   -2.693253   -3.355535
     25          6           0       -1.215909    2.561029    0.711672
     26          1           0       -2.282194    2.736552    0.571048
     27          6           0       -1.717652   -1.777803   -1.418881
     28          1           0       -2.754775   -1.463775   -1.556243
     29          1           0        3.147463    0.675436   -2.841114
     30          8           0       -0.994827   -1.337462    3.583455
     31          6           0        2.730741   -0.470901    0.101755
     32          6           0        5.322616   -1.119213    0.863205
     33          6           0        1.473608    2.067521    1.045948
     34          6           0        2.908085    1.738937    1.259761
     35          6           0        3.714972    2.626476    1.929047
     36          6           0        5.073199    2.322546    2.229955
     37          6           0        5.602830    1.110564    1.893986
     38          6           0        4.811296    0.139208    1.201547
     39          6           0        3.462151    0.468376    0.835181
     40          1           0        3.300616    3.574756    2.279022
     41          1           0        5.675993    3.059302    2.764005
     42          1           0        6.633216    0.859971    2.156221
     43          6           0        3.193650   -1.762394   -0.149379
     44          6           0        4.542474   -2.089663    0.218987
     45          6           0        5.045332   -3.392719   -0.098325
     46          6           0        4.245726   -4.313457   -0.714531
     47          6           0        2.887603   -4.008596   -1.024146
     48          6           0        2.352267   -2.775425   -0.748084
     49          1           0        6.075889   -3.638715    0.167571
     50          1           0        4.631874   -5.306659   -0.950934
     51          1           0        2.255788   -4.788047   -1.456262
     52          6           0        0.918046   -2.483156   -1.017782
     53          1           0        0.870679   -3.262032   -3.036700
     54          6           0        0.122290   -1.870212   -0.042132
     55          1           0        0.535067   -1.700823    0.951798
     56          1           0        0.750969    0.141567    1.675213
     57          6           0        2.612660    2.763437   -3.012315
     58          6           0        1.577790    3.699334   -2.995840
     59          1           0        1.793319    4.757258   -3.154817
     60          1           0        3.639848    3.091865   -3.182107
     61         35           0       -5.925822   -0.216776   -0.632087
     62          1           0        6.359013   -1.345426    1.127382
     63          1           0        1.758249   -0.181238   -0.281187
 ---------------------------------------------------------------------
 Rotational constants (GHZ):           0.1113904           0.0545814           0.0498267
 Basis read from rwf:  (5D, 7F)
 There are   802 symmetry adapted cartesian basis functions of A   symmetry.
 There are   751 symmetry adapted basis functions of A   symmetry.
   751 basis functions,  1339 primitive gaussians,   802 cartesian basis functions
   165 alpha electrons      165 beta electrons
       nuclear repulsion energy      6077.6264263903 Hartrees.
 NAtoms=   63 NActive=   63 NUniq=   63 SFac= 1.00D+00 NAtFMM=   60 NAOKFM=T Big=T
 Integral buffers will be    131072 words long.
 Raffenetti 2 integral format.
 Two-electron integral symmetry is turned on.
 Nuclear repulsion after empirical dispersion term =     6077.5507210487 Hartrees.
 ------------------------------------------------------------------------------
 Polarizable Continuum Model (PCM)
 =================================
 Model                : PCM.
 Atomic radii         : UFF (Universal Force Field).
 Polarization charges : Total charges.
 Charge compensation  : None.
 Solution method      : On-the-fly selection.
 Cavity type          : Scaled VdW (van der Waals Surface) (Alpha=1.100).
 Cavity algorithm     : GePol (No added spheres)
                        Default sphere list used, NSphG=   63.
                        Lebedev-Laikov grids with approx.  5.0 points / Ang**2.
                        Smoothing algorithm: York/Karplus (Gamma=1.0000).
                        Polarization charges: spherical gaussians, with
                                              point-specific exponents (IZeta= 3).
                        Self-potential: point-specific (ISelfS= 7).
                        Self-field    : sphere-specific E.n sum rule (ISelfD= 2).
 1st derivatives      : Analytical E(r).r(x)/FMM algorithm (CHGder, D1EAlg=3).
                        Cavity 1st derivative terms included.
 Solvent              : TetraHydroFuran, Eps=   7.425700 Eps(inf)=   1.974025
 ------------------------------------------------------------------------------
 One-electron integrals computed using PRISM.
 PrsmSu:  requested number of processors reduced to:  11 ShMem   1 Linda.
 NBasis=   751 RedAO= T EigKep=  2.22D-04  NBF=   751
 NBsUse=   751 1.00D-06 EigRej= -1.00D+00 NBFU=   751
 Initial guess from the checkpoint file:  "checkpoint.chk"
 B after Tr=     0.000000    0.000000   -0.000000
         Rot=    0.999979    0.001256    0.002706    0.005689 Ang=   0.74 deg.
 ExpMin= 3.93D-02 ExpMax= 2.77D+05 ExpMxC= 1.70D+04 IAcc=3 IRadAn=         5 AccDes= 0.00D+00
 Harris functional with IExCor= 4639 and IRadAn=       5 diagonalized for initial guess.
 HarFok:  IExCor= 4639 AccDes= 0.00D+00 IRadAn=         5 IDoV= 1 UseB2=F ITyADJ=14
 ICtDFT=  3500011 ScaDFX=  1.000000  1.000000  1.000000  1.000000
 FoFCou: FMM=F IPFlag=           0 FMFlag=      100000 FMFlg1=        2001
         NFxFlg=           0 DoJE=T BraDBF=F KetDBF=T FulRan=T
         wScrn=  0.000000 ICntrl=       500 IOpCl=  0 I1Cent=   200000004 NGrid=           0
         NMat0=    1 NMatS0=      1 NMatT0=    0 NMatD0=    1 NMtDS0=    0 NMtDT0=    0
 Petite list used in FoFCou.
 Requested convergence on RMS density matrix=1.00D-08 within 128 cycles.
 Requested convergence on MAX density matrix=1.00D-06.
 Requested convergence on             energy=1.00D-06.
 No special actions if energy rises.
 CoulSu:  requested number of processors reduced to:  11 ShMem   1 Linda.
 Inv3:  Mode=1 IEnd=    62353443.
 Iteration    1 A*A^-1 deviation from unit magnitude is 3.11D-15 for   2689.
 Iteration    1 A*A^-1 deviation from orthogonality  is 2.55D-15 for   3684   3408.
 Iteration    1 A^-1*A deviation from unit magnitude is 3.55D-15 for   3012.
 Iteration    1 A^-1*A deviation from orthogonality  is 2.87D-15 for   3429   3283.
 CoulSu:  requested number of processors reduced to:  11 ShMem   1 Linda.
 CoulSu:  requested number of processors reduced to:  11 ShMem   1 Linda.
