 Entering Gaussian System, Link 0=g16
 Initial command:
 /home1/apps/gaussian/16rA.03/g16/l1.exe "/tmp/Gau-103330.inp" -scrdir="/tmp/"
 Entering Link 1 = /home1/apps/gaussian/16rA.03/g16/l1.exe PID=    103331.
  
 Copyright (c) 1988,1990,1992,1993,1995,1998,2003,2009,2016,
            Gaussian, Inc.  All Rights Reserved.
  
 This is part of the Gaussian(R) 16 program.  It is based on
 the Gaussian(R) 09 system (copyright 2009, Gaussian, Inc.),
 the Gaussian(R) 03 system (copyright 2003, Gaussian, Inc.),
 the Gaussian(R) 98 system (copyright 1998, Gaussian, Inc.),
 the Gaussian(R) 94 system (copyright 1995, Gaussian, Inc.),
 the Gaussian 92(TM) system (copyright 1992, Gaussian, Inc.),
 the Gaussian 90(TM) system (copyright 1990, Gaussian, Inc.),
 the Gaussian 88(TM) system (copyright 1988, Gaussian, Inc.),
 the Gaussian 86(TM) system (copyright 1986, Carnegie Mellon
 University), and the Gaussian 82(TM) system (copyright 1983,
 Carnegie Mellon University). Gaussian is a federally registered
 trademark of Gaussian, Inc.
  
 This software contains proprietary and confidential information,
 including trade secrets, belonging to Gaussian, Inc.
  
 This software is provided under written license and may be
 used, copied, transmitted, or stored only in accord with that
 written license.
  
 The following legend is applicable only to US Government
 contracts under FAR:
  
                    RESTRICTED RIGHTS LEGEND
  
 Use, reproduction and disclosure by the US Government is
 subject to restrictions as set forth in subparagraphs (a)
 and (c) of the Commercial Computer Software - Restricted
 Rights clause in FAR 52.227-19.
  
 Gaussian, Inc.
 340 Quinnipiac St., Bldg. 40, Wallingford CT 06492
  
  
 ---------------------------------------------------------------
 Warning -- This program may not be used in any manner that
 competes with the business of Gaussian, Inc. or will provide
 assistance to any competitor of Gaussian, Inc.  The licensee
 of this program is prohibited from giving any competitor of
 Gaussian, Inc. access to this program.  By using this program,
 the user acknowledges that Gaussian, Inc. is engaged in the
 business of creating and licensing software in the field of
 computational chemistry and represents and warrants to the
 licensee that it is not a competitor of Gaussian, Inc. and that
 it will not use this program in any manner prohibited above.
 ---------------------------------------------------------------
  

 Cite this work as:
 Gaussian 16, Revision A.03,
 M. J. Frisch, G. W. Trucks, H. B. Schlegel, G. E. Scuseria, 
 M. A. Robb, J. R. Cheeseman, G. Scalmani, V. Barone, 
 G. A. Petersson, H. Nakatsuji, X. Li, M. Caricato, A. V. Marenich, 
 J. Bloino, B. G. Janesko, R. Gomperts, B. Mennucci, H. P. Hratchian, 
 J. V. Ortiz, A. F. Izmaylov, J. L. Sonnenberg, D. Williams-Young, 
 F. Ding, F. Lipparini, F. Egidi, J. Goings, B. Peng, A. Petrone, 
 T. Henderson, D. Ranasinghe, V. G. Zakrzewski, J. Gao, N. Rega, 
 G. Zheng, W. Liang, M. Hada, M. Ehara, K. Toyota, R. Fukuda, 
 J. Hasegawa, M. Ishida, T. Nakajima, Y. Honda, O. Kitao, H. Nakai, 
 T. Vreven, K. Throssell, J. A. Montgomery, Jr., J. E. Peralta, 
 F. Ogliaro, M. J. Bearpark, J. J. Heyd, E. N. Brothers, K. N. Kudin, 
 V. N. Staroverov, T. A. Keith, R. Kobayashi, J. Normand, 
 K. Raghavachari, A. P. Rendell, J. C. Burant, S. S. Iyengar, 
 J. Tomasi, M. Cossi, J. M. Millam, M. Klene, C. Adamo, R. Cammi, 
 J. W. Ochterski, R. L. Martin, K. Morokuma, O. Farkas, 
 J. B. Foresman, and D. J. Fox, Gaussian, Inc., Wallingford CT, 2016.
 
 ******************************************
 Gaussian 16:  ES64L-G16RevA.03 25-Dec-2016
                17-Feb-2023 
 ******************************************
 %Chk=checkpoint.chk
 %NProcShared=12
 Will use up to   12 processors via shared memory.
 -----------------------------------------------------
 #wB97XD Gen Opt=(QST3) SCRF=(Solvent=TetraHydroFuran)
 -----------------------------------------------------
 1/5=1,18=20,26=3,27=203,38=1/1,3;
 2/9=110,12=2,17=6,18=5,40=1/2;
 3/5=7,11=2,25=1,30=1,70=2201,71=1,72=20,74=-58/1,2,3;
 4//1;
 5/5=2,38=5,53=20/2;
 6/7=2,8=2,9=2,10=2,28=1/1;
 7//1,2,3,16;
 1/5=1,18=20,26=3,27=203/3(2);
 2/9=110/2;
 99//99;
 2/9=110/2;
 3/5=7,6=1,11=2,25=1,30=1,70=2205,71=1,72=20,74=-58,82=7/1,2,3;
 4/5=5,16=3,69=1/1;
 5/5=2,38=5,53=20/2;
 7//1,2,3,16;
 1/5=1,18=20,26=3,27=203/3(-5);
 2/9=110/2;
 6/7=2,8=2,9=2,10=2,19=2,28=1/1;
 99/9=1/99;
 ------------------------------------
 Anthracene Transition State Reactant
 ------------------------------------
 Symbolic Z-matrix:
 Charge =  0 Multiplicity = 1
 Mn                   -1.0194   -0.13282  -1.30041 
 C                    -1.95084   1.09527  -2.29845 
 O                    -2.50101   1.87539  -2.92239 
 C                    -1.94096  -1.55093  -2.01671 
 O                    -2.47772  -2.45176  -2.46467 
 C                     0.20025  -0.27236  -2.6431 
 N                     0.04927  -1.53221  -0.03083 
 C                     0.07866  -3.04556   1.8282 
 C                     1.46702  -3.1228    1.77993 
 C                     1.37634  -1.67638  -0.11513 
 H                    -0.49205  -3.5931    2.57846 
 H                     2.01871  -3.71611   2.51212 
 N                    -2.37065   0.02942   0.19031 
 C                    -3.16697   0.13023   1.0198 
 C                    -4.10539   0.2658    2.09209 
 C                    -3.6202    0.43566   3.39952 
 C                    -4.52704   0.57079   4.44399 
 C                    -5.48203   0.23058   1.82486 
 H                    -2.54534   0.46071   3.58681 
 H                    -5.82775   0.09615   0.79488 
 N                     0.05018   1.50245  -0.35369 
 C                     0.08073   3.37421   1.14383 
 C                     1.47006   3.42805   1.09346 
 H                    -0.49002   4.07266   1.75603 
 C                    -0.58809  -2.23239   0.92237 
 H                    -1.67251  -2.14107   0.96102 
 C                    -0.58735   2.39419   0.42298 
 H                    -1.67305   2.32336   0.46813 
 H                    -4.16287   0.70328   5.46409 
 O                     0.94147  -0.36186  -3.51126 
 C                     3.71034   0.05692   0.59661 
 C                     6.44285   0.00195   0.07986 
 C                     2.14993  -2.41932   0.78562 
 C                     3.63318  -2.42875   0.67238 
 C                     4.33237  -3.60918   0.65808 
 C                     5.74721  -3.62943   0.48325 
 C                     6.44286  -2.47015   0.28898 
 C                     5.76733  -1.20725   0.29051 
 C                     4.35206  -1.18133   0.52939 
 H                     3.79554  -4.55679   0.74485 
 H                     6.26618  -4.58974   0.47691 
 H                     7.52231  -2.48926   0.12265 
 C                     4.35394   1.25516   0.28141 
 C                     5.76945   1.23001   0.04342 
 C                     6.44775   2.46555  -0.21061 
 C                     5.75436   3.64152  -0.25402 
 C                     4.33929   3.65908  -0.08147 
 C                     3.63726   2.50702   0.16895 
 H                     7.52743   2.44868  -0.37582 
 H                     6.27529   4.58008  -0.45221 
 H                     3.80437   4.6056   -0.18931 
 C                     2.15352   2.52607   0.2752 
 H                     2.02229   4.15802   1.68899 
 C                     1.37923   1.61496  -0.45427 
 H                     1.87683   0.94259  -1.1522 
 H                     1.87309  -1.17143  -0.94303 
 C                    -5.89955   0.53687   4.18594 
 C                    -6.37363   0.36773   2.88435 
 H                    -7.44706   0.34214   2.68994 
 H                    -6.60706   0.64379   5.01079 
 Br                   -5.87537  -0.28615  -1.89241 
 H                     7.52454  -0.01473  -0.07653 
 H                     2.66679   0.08836   0.89635 
 
 Add virtual bond connecting atoms Br61       and H20        Dist= 5.13D+00.
 -----------------------------------
 Anthracene Transition State Product
 -----------------------------------
 Symbolic Z-matrix:
 Charge =  0 Multiplicity = 1
 Mn                   -1.44286   0.16026  -2.01412 
 C                    -2.20443   1.54882  -2.90891 
 O                    -2.68366   2.42731  -3.46349 
 C                    -2.21304  -1.07612  -3.10367 
 O                    -2.69804  -1.85971  -3.78172 
 C                    -0.01408   0.23546  -3.09485 
 N                    -0.60049  -1.44099  -0.81185 
 C                    -0.82342  -3.27125   0.71581 
 C                     0.55737  -3.36677   0.85296 
 C                     0.7252   -1.5913   -0.72767 
 H                    -1.48955  -3.94449   1.25661 
 H                     1.00241  -4.09964   1.52935 
 N                     0.0775   -0.17244   2.4041 
 C                    -1.05369  -0.19765   2.64732 
 C                    -2.45976  -0.23136   2.94445 
 C                    -3.12645  -1.4621    3.01383 
 C                    -4.49389  -1.48788   3.26678 
 C                    -3.15853   0.96659   3.1448 
 H                    -2.5722   -2.38909   2.86463 
 H                    -2.62937   1.91849   3.09601 
 N                    -0.59083   1.56154  -0.58857 
 C                    -0.80429   3.1413    1.19825 
 C                     0.5769    3.20654   1.34817 
 H                    -1.46646   3.7285    1.83564 
 C                    -1.3638   -2.28301  -0.09733 
 H                    -2.44255  -2.14076  -0.17604 
 C                    -1.34964   2.291     0.24463 
 H                    -2.42913   2.16919   0.14486 
 H                    -5.01736  -2.44419   3.31559 
 O                     0.86165   0.2873   -3.83871 
 C                     2.91235  -0.04746   0.58557 
 C                     5.69235  -0.04273   0.41158 
 C                     1.36924  -2.49754   0.12252 
 C                     2.85402  -2.5063    0.21569 
 C                     3.56205  -3.67493   0.08887 
 C                     4.98786  -3.68132   0.09599 
 C                     5.69088  -2.51399   0.19056 
 C                     5.00769  -1.26191   0.32192 
 C                     3.57322  -1.26107   0.38259 
 H                     3.02896  -4.61681  -0.06081 
 H                     5.51371  -4.63251  -0.00729 
 H                     6.783    -2.51728   0.16154 
 C                     3.58071   1.17889   0.56648 
 C                     5.01522   1.18024   0.5065 
 C                     5.70587   2.43375   0.56536 
 C                     5.00976   3.60611   0.64834 
 C                     3.58394   3.60941   0.64 
 C                     2.86897   2.43926   0.58848 
 H                     6.79801   2.43509   0.53708 
 H                     5.54131   4.55882   0.69009 
 H                     3.05653   4.56629   0.63458 
 C                     1.38429   2.45343   0.49431 
 H                     1.02578   3.82526   2.12808 
 C                     0.73572   1.68987  -0.48314 
 H                     1.34033   1.15471  -1.214 
 H                     1.33286  -0.9558   -1.37019 
 C                    -5.19354  -0.29487   3.45284 
 C                    -4.52569   0.92909   3.39758 
 H                    -5.07398   1.86057   3.54798 
 H                    -6.26798  -0.31941   3.64516 
 Br                   -3.72263   0.07153  -0.71897 
 H                     1.84487  -0.05936   0.78995 
 H                     6.78538  -0.04496   0.39399 
 
 Add virtual bond connecting atoms N7         and Mn1        Dist= 4.11D+00.
 Add virtual bond connecting atoms N21        and Mn1        Dist= 4.11D+00.
 Add virtual bond connecting atoms H11        and H19        Dist= 4.70D+00.
 Add virtual bond connecting atoms H24        and H20        Dist= 4.71D+00.
 Add virtual bond connecting atoms H62        and N13        Dist= 4.53D+00.
 -----------------------------------------
 Anthracene Transition State Initial Guess
 -----------------------------------------
 Symbolic Z-matrix:
 Charge =  0 Multiplicity = 1
 Mn                   -1.14522  -0.0637   -1.69103 
 C                    -1.87389   1.25954  -2.7476 
 O                    -2.11308   2.15315  -3.42051 
 C                    -1.92192  -1.52877  -2.50189 
 O                    -2.18799  -2.5184   -3.01064 
 C                     0.11654  -0.19012  -2.93026 
 N                    -0.16386  -1.61456  -0.39959 
 C                    -0.3324   -3.20774   1.38156 
 C                     1.04859  -3.20016   1.55091 
 C                     1.16585  -1.68931  -0.29229 
 H                    -0.97732  -3.82061   2.01383 
 H                     1.51484  -3.78718   2.34657 
 N                    -2.22797   0.12027   0.13786 
 C                    -2.80207   0.1797    1.13534 
 C                    -3.57909   0.22179   2.34116 
 C                    -2.93652   0.39859   3.57515 
 C                    -3.69752   0.42952   4.73909 
 C                    -4.97087   0.07628   2.26544 
 H                    -1.85039   0.50818   3.6119 
 H                    -5.4537   -0.05913   1.2946 
 N                    -0.09958   1.6418   -0.72167 
 C                    -0.1473    3.59803   0.65877 
 C                     1.24031   3.58566   0.76634 
 H                    -0.74655   4.35874   1.16208 
 C                    -0.89668  -2.39512   0.40843 
 H                    -1.98031  -2.35749   0.27708 
 C                    -0.77674   2.60297  -0.0754 
 H                    -1.86605   2.56827  -0.14589 
 H                    -3.2048    0.56468   5.70477 
 O                     0.89536  -0.2653   -3.7775 
 C                     3.42691   0.08633   0.63379 
 C                     6.20631  -0.00283   0.50475 
 C                     1.83622  -2.42769   0.69214 
 C                     3.32302  -2.40489   0.79324 
 C                     4.01789  -3.58073   0.92636 
 C                     5.44382  -3.60766   0.96324 
 C                     6.16315  -2.4573    0.82299 
 C                     5.49535  -1.19732   0.67196 
 C                     4.06012  -1.15844   0.70543 
 H                     3.47288  -4.52756   0.96803 
 H                     5.9534   -4.56779   1.07551 
 H                     7.25629  -2.47602   0.81678 
 C                     4.12359   1.27195   0.37722 
 C                     5.55789   1.22546   0.32796 
 C                     6.28926   2.43974   0.11073 
 C                     5.63067   3.6208   -0.06807 
 C                     4.20474   3.66406  -0.06554 
 C                     3.45242   2.53559   0.13989 
 H                     7.38135   2.39657   0.08298 
 H                     6.18881   4.54413  -0.24107 
 H                     3.70491   4.61551  -0.26639 
 C                     1.96606   2.60859   0.08023 
 H                     1.75819   4.32565   1.38197 
 C                     1.23422   1.69264  -0.68562 
 H                     1.76907   0.96516  -1.29797 
 H                     1.74748  -1.13162  -1.02757 
 C                    -5.0845    0.28601   4.67022 
 C                    -5.71878   0.11148   3.43878 
 H                    -6.80459   0.00142   3.39142 
 H                    -5.67755   0.31043   5.58806 
 Br                   -4.16118  -0.05263  -2.04223 
 H                     7.2997   -0.03223   0.49715 
 H                     2.34957   0.13104   0.77582 
 

 GradGradGradGradGradGradGradGradGradGradGradGradGradGradGradGradGradGrad
 Berny optimization.
 Initialization pass.
                           ----------------------------
                           !    Initial Parameters    !
                           ! (Angstroms and Degrees)  !
 --------------------------                            --------------------------
 ! Name  Definition         TS        Reactant Product Derivative Info.         !
 --------------------------------------------------------------------------------
 ! R1    R(1,2)             1.8434    1.8363    1.819  estimate D2E/DX2         !
 ! R2    R(1,4)             1.8459    1.8367    1.819  estimate D2E/DX2         !
 ! R3    R(1,6)             1.7731    1.8193    1.7931 estimate D2E/DX2         !
 ! R4    R(1,7)             2.2441    2.1708    2.1723 estimate D2E/DX2         !
 ! R5    R(1,13)            2.1333    2.0185    4.6843 estimate D2E/DX2         !
 ! R6    R(1,21)            2.223     2.1713    2.173  estimate D2E/DX2         !
 ! R7    R(1,61)            3.0364    4.8943    2.6235 estimate D2E/DX2         !
 ! R8    R(2,3)             1.1439    1.1404    1.1441 estimate D2E/DX2         !
 ! R9    R(4,5)             1.1441    1.1403    1.1441 estimate D2E/DX2         !
 ! R10   R(6,30)            1.1533    1.145     1.1502 estimate D2E/DX2         !
 ! R11   R(7,10)            1.3361    1.3375    1.3368 estimate D2E/DX2         !
 ! R12   R(7,25)            1.3413    1.3435    1.3425 estimate D2E/DX2         !
 ! R13   R(8,9)             1.3914    1.3913    1.3909 estimate D2E/DX2         !
 ! R14   R(8,11)            1.0915    1.0901    1.0906 estimate D2E/DX2         !
 ! R15   R(8,25)            1.3877    1.3879    1.3892 estimate D2E/DX2         !
 ! R16   R(9,12)            1.0932    1.092     1.0921 estimate D2E/DX2         !
 ! R17   R(9,33)            1.3981    1.3964    1.3958 estimate D2E/DX2         !
 ! R18   R(10,33)           1.4013    1.4006    1.3996 estimate D2E/DX2         !
 ! R19   R(10,56)           1.0909    1.0896    1.089  estimate D2E/DX2         !
 ! R20   R(11,19)           4.6962    4.6547    2.4854 estimate D2E/DX2         !
 ! R21   R(13,14)           1.1524    1.1543    1.1573 estimate D2E/DX2         !
 ! R22   R(13,62)           9.5357    9.8989    2.3962 estimate D2E/DX2         !
 ! R23   R(14,15)           1.4351    1.4314    1.4375 estimate D2E/DX2         !
 ! R24   R(15,16)           1.4025    1.4049    1.4014 estimate D2E/DX2         !
 ! R25   R(15,18)           1.4014    1.4028    1.4013 estimate D2E/DX2         !
 ! R26   R(16,17)           1.391     1.3898    1.3909 estimate D2E/DX2         !
 ! R27   R(16,19)           1.0923    1.0913    1.0903 estimate D2E/DX2         !
 ! R28   R(17,29)           1.0925    1.0912    1.0913 estimate D2E/DX2         !
 ! R29   R(17,57)           1.3961    1.397     1.3955 estimate D2E/DX2         !
 ! R30   R(18,20)           1.0927    1.0947    1.0902 estimate D2E/DX2         !
 ! R31   R(18,58)           1.3919    1.3915    1.3908 estimate D2E/DX2         !
 ! R32   R(20,24)           6.457     6.7252    2.4934 estimate D2E/DX2         !
 ! R33   R(20,61)           3.5784    2.7148    4.3773 estimate D2E/DX2         !
 ! R34   R(21,27)           1.3417    1.3435    1.3424 estimate D2E/DX2         !
 ! R35   R(21,54)           1.3353    1.3376    1.3369 estimate D2E/DX2         !
 ! R36   R(22,23)           1.3918    1.3913    1.3908 estimate D2E/DX2         !
 ! R37   R(22,24)           1.0914    1.0901    1.0907 estimate D2E/DX2         !
 ! R38   R(22,27)           1.3876    1.3879    1.3892 estimate D2E/DX2         !
 ! R39   R(23,52)           1.3972    1.3965    1.3958 estimate D2E/DX2         !
 ! R40   R(23,53)           1.0931    1.092     1.092  estimate D2E/DX2         !
 ! R41   R(25,26)           1.0922    1.0889    1.0909 estimate D2E/DX2         !
 ! R42   R(27,28)           1.0921    1.0889    1.0909 estimate D2E/DX2         !
 ! R43   R(31,39)           1.3984    1.3963    1.3967 estimate D2E/DX2         !
 ! R44   R(31,43)           1.3989    1.3962    1.3968 estimate D2E/DX2         !
 ! R45   R(31,62)           3.877     3.8738    1.0869 estimate D2E/DX2         !
 ! R46   R(31,63)           1.0876    1.0862    3.8778 estimate D2E/DX2         !
 ! R47   R(32,38)           1.4001    1.401     1.4011 estimate D2E/DX2         !
 ! R48   R(32,44)           1.4001    1.401     1.4011 estimate D2E/DX2         !
 ! R49   R(32,62)           1.0938    1.0931    3.8661 estimate D2E/DX2         !
 ! R50   R(32,63)           3.8686    3.8643    1.0932 estimate D2E/DX2         !
 ! R51   R(33,34)           1.4904    1.4876    1.4877 estimate D2E/DX2         !
 ! R52   R(34,35)           1.3723    1.372     1.3723 estimate D2E/DX2         !
 ! R53   R(34,39)           1.4507    1.4468    1.4477 estimate D2E/DX2         !
 ! R54   R(35,36)           1.4267    1.4257    1.4258 estimate D2E/DX2         !
 ! R55   R(35,40)           1.0933    1.0926    1.0926 estimate D2E/DX2         !
 ! R56   R(36,37)           1.364     1.3659    1.366  estimate D2E/DX2         !
 ! R57   R(36,41)           1.0928    1.0916    1.0918 estimate D2E/DX2         !
 ! R58   R(37,38)           1.434     1.4322    1.4324 estimate D2E/DX2         !
 ! R59   R(37,42)           1.0933    1.0924    1.0925 estimate D2E/DX2         !
 ! R60   R(38,39)           1.4361    1.4355    1.4358 estimate D2E/DX2         !
 ! R61   R(43,44)           1.4359    1.4356    1.4358 estimate D2E/DX2         !
 ! R62   R(43,48)           1.4504    1.4469    1.4476 estimate D2E/DX2         !
 ! R63   R(44,45)           1.4341    1.4322    1.4324 estimate D2E/DX2         !
 ! R64   R(45,46)           1.364     1.3659    1.366  estimate D2E/DX2         !
 ! R65   R(45,49)           1.0933    1.0924    1.0925 estimate D2E/DX2         !
 ! R66   R(46,47)           1.4266    1.4257    1.4258 estimate D2E/DX2         !
 ! R67   R(46,50)           1.0927    1.0916    1.0918 estimate D2E/DX2         !
 ! R68   R(47,48)           1.3717    1.3722    1.3723 estimate D2E/DX2         !
 ! R69   R(47,51)           1.0934    1.0926    1.0926 estimate D2E/DX2         !
 ! R70   R(48,52)           1.4893    1.4877    1.4877 estimate D2E/DX2         !
 ! R71   R(52,54)           1.4004    1.4006    1.3997 estimate D2E/DX2         !
 ! R72   R(54,55)           1.091     1.0894    1.0891 estimate D2E/DX2         !
 ! R73   R(57,58)           1.3961    1.3955    1.3954 estimate D2E/DX2         !
 ! R74   R(57,60)           1.093     1.092     1.0918 estimate D2E/DX2         !
 ! R75   R(58,59)           1.0924    1.0912    1.0913 estimate D2E/DX2         !
 ! A1    A(2,1,4)          98.7214   92.8602   92.6906 estimate D2E/DX2         !
 ! A2    A(2,1,6)          86.094    89.4398   90.2928 estimate D2E/DX2         !
 ! A3    L(2,1,7,4,-1)    182.3076  181.5632  182.3854 estimate D2E/DX2         !
 ! A4    L(2,1,7,4,-2)    178.3003  182.4131  183.4865 estimate D2E/DX2         !
 ! A5    A(2,1,13)        103.2289   90.4629  130.8496 estimate D2E/DX2         !
 ! A6    A(2,1,21)         83.4048   89.035    89.6911 estimate D2E/DX2         !
 ! A7    A(2,1,61)         62.5138   56.7659   84.5395 estimate D2E/DX2         !
 ! A8    A(4,1,6)          86.32     89.3883   90.279  estimate D2E/DX2         !
 ! A9    A(4,1,7)          83.5862   88.703    89.6949 estimate D2E/DX2         !
 ! A10   A(4,1,13)        103.3844   90.8132  130.8505 estimate D2E/DX2         !
 ! A11   L(4,1,21,2,-1)   182.1262  181.8953  182.3816 estimate D2E/DX2         !
 ! A12   L(4,1,21,2,-2)   182.4503  177.8035  176.5025 estimate D2E/DX2         !
 ! A13   A(4,1,61)         62.2337   55.3068   84.5361 estimate D2E/DX2         !
 ! A14   A(6,1,7)          92.3924   92.9897   93.1816 estimate D2E/DX2         !
 ! A15   L(6,1,13,2,-1)   189.323   179.9027  221.1424 estimate D2E/DX2         !
 ! A16   L(6,1,13,2,-2)   191.7262  180.197   245.2912 estimate D2E/DX2         !
 ! A17   A(6,1,21)         91.4178   92.827    93.2059 estimate D2E/DX2         !
 ! A18   L(6,1,61,2,-1)   148.6079  146.2057  174.8323 estimate D2E/DX2         !
 ! A19   L(6,1,61,2,-2)   137.9977  133.7926  174.5395 estimate D2E/DX2         !
 ! A20   A(7,1,13)         77.7716   87.1023   45.5557 estimate D2E/DX2         !
 ! A21   A(7,1,21)         94.2187   89.3121   87.7196 estimate D2E/DX2         !
 ! A22   A(7,1,61)        120.2285  122.615    92.2245 estimate D2E/DX2         !
 ! A23   A(13,1,21)        78.3895   86.9744   45.554  estimate D2E/DX2         !
 ! A24   A(21,1,61)       120.9875  124.4079   92.2164 estimate D2E/DX2         !
 ! A25   L(1,2,3,18,-1)   187.8965  181.2299  179.5621 estimate D2E/DX2         !
 ! A26   L(1,2,3,22,-1)   174.5705  179.0518  179.5279 estimate D2E/DX2         !
 ! A27   L(1,2,3,18,-2)   170.753   178.8291  179.7608 estimate D2E/DX2         !
 ! A28   L(1,2,3,22,-2)   169.9208  178.5473  180.1171 estimate D2E/DX2         !
 ! A29   L(1,4,5,8,-1)    174.8637  178.9781  179.5473 estimate D2E/DX2         !
 ! A30   L(1,4,5,8,-2)    190.5403  181.8662  179.8672 estimate D2E/DX2         !
 ! A31   L(1,6,30,10,-1)  182.6755  181.4747  182.6714 estimate D2E/DX2         !
 ! A32   L(1,6,30,10,-2)  178.7099  178.99    178.0594 estimate D2E/DX2         !
 ! A33   A(1,7,10)        121.3376  121.4044  120.1501 estimate D2E/DX2         !
 ! A34   A(1,7,25)        120.6573  121.1552  122.4403 estimate D2E/DX2         !
 ! A35   A(10,7,25)       117.5671  117.3369  117.3751 estimate D2E/DX2         !
 ! A36   A(9,8,11)        121.2668  121.2244  121.0019 estimate D2E/DX2         !
 ! A37   A(9,8,25)        119.0622  119.2911  119.5213 estimate D2E/DX2         !
 ! A38   A(11,8,25)       119.6546  119.4687  119.4588 estimate D2E/DX2         !
 ! A39   A(8,9,12)        120.5969  120.7321  120.7784 estimate D2E/DX2         !
 ! A40   A(8,9,33)        119.1714  118.9955  118.8861 estimate D2E/DX2         !
 ! A41   A(12,9,33)       120.2314  120.2701  120.331  estimate D2E/DX2         !
 ! A42   A(7,10,33)       124.1929  124.3771  124.5675 estimate D2E/DX2         !
 ! A43   A(7,10,56)       116.6092  116.7619  116.7806 estimate D2E/DX2         !
 ! A44   A(33,10,56)      119.1979  118.8603  118.6518 estimate D2E/DX2         !
 ! A45   A(8,11,19)        77.8422   86.7094  101.5699 estimate D2E/DX2         !
 ! A46   L(1,13,14,8,-1)  177.9587  181.4217  143.4264 estimate D2E/DX2         !
 ! A47   L(1,13,14,8,-2)  180.5394  180.9146  272.8095 estimate D2E/DX2         !
 ! A48   A(14,13,62)      117.7723  135.1856  149.7131 estimate D2E/DX2         !
 ! A49   L(13,14,15,11,-1)  180.1572  178.6485  179.8378 estimate D2E/DX2       !
 ! A50   L(13,14,15,1,-1)  177.8458  179.3423  179.8053 estimate D2E/DX2        !
 ! A51   L(13,14,15,11,-2)  183.1492  177.655  180.1544 estimate D2E/DX2        !
 ! A52   L(13,14,15,1,-2)  242.752  323.0409  179.8888 estimate D2E/DX2         !
 ! A53   A(14,15,16)      119.6648  118.8297  119.745  estimate D2E/DX2         !
 ! A54   A(14,15,18)      119.2931  119.8879  119.8197 estimate D2E/DX2         !
 ! A55   A(16,15,18)      121.0408  121.2822  120.4296 estimate D2E/DX2         !
 ! A56   A(15,16,17)      119.2355  119.0657  119.537  estimate D2E/DX2         !
 ! A57   A(15,16,19)      119.8575  120.1746  119.8713 estimate D2E/DX2         !
 ! A58   A(17,16,19)      120.9069  120.7597  120.591  estimate D2E/DX2         !
 ! A59   A(16,17,29)      119.7126  119.7748  119.7337 estimate D2E/DX2         !
 ! A60   A(16,17,57)      119.9975  119.9927  120.0872 estimate D2E/DX2         !
 ! A61   A(29,17,57)      120.2898  120.2326  120.1787 estimate D2E/DX2         !
 ! A62   A(15,18,20)      119.9804  119.4873  119.8693 estimate D2E/DX2         !
 ! A63   A(15,18,58)      119.0437  118.7694  119.546  estimate D2E/DX2         !
 ! A64   A(20,18,58)      120.9756  121.7433  120.5838 estimate D2E/DX2         !
 ! A65   A(11,19,16)       94.6426  112.1661  147.3575 estimate D2E/DX2         !
 ! A66   A(18,20,24)       67.1277   62.7598  151.9875 estimate D2E/DX2         !
 ! A67   A(18,20,61)      131.9641  162.5838   63.2149 estimate D2E/DX2         !
 ! A68   A(1,21,27)       121.4847  121.2128  122.409  estimate D2E/DX2         !
 ! A69   A(1,21,54)       120.7198  121.3339  120.1792 estimate D2E/DX2         !
 ! A70   A(27,21,54)      117.6381  117.3326  117.3719 estimate D2E/DX2         !
 ! A71   A(23,22,24)      121.1954  121.2226  120.9754 estimate D2E/DX2         !
 ! A72   A(23,22,27)      119.1289  119.2873  119.5087 estimate D2E/DX2         !
 ! A73   A(24,22,27)      119.6556  119.4755  119.497  estimate D2E/DX2         !
 ! A74   A(22,23,52)      119.0856  119.0084  118.8945 estimate D2E/DX2         !
 ! A75   A(22,23,53)      120.655   120.7383  120.7806 estimate D2E/DX2         !
 ! A76   A(52,23,53)      120.2588  120.2517  120.3201 estimate D2E/DX2         !
 ! A77   A(20,24,22)       86.149    87.5038  100.821  estimate D2E/DX2         !
 ! A78   A(7,25,8)        122.7542  122.7164  122.4501 estimate D2E/DX2         !
 ! A79   A(7,25,26)       116.7147  116.9941  116.2352 estimate D2E/DX2         !
 ! A80   A(8,25,26)       120.527   120.2893  121.3081 estimate D2E/DX2         !
 ! A81   A(21,27,22)      122.6609  122.7187  122.4637 estimate D2E/DX2         !
 ! A82   A(21,27,28)      116.7152  116.996   116.2248 estimate D2E/DX2         !
 ! A83   A(22,27,28)      120.623   120.2851  121.3045 estimate D2E/DX2         !
 ! A84   A(39,31,43)      122.5691  122.5723  122.3093 estimate D2E/DX2         !
 ! A85   A(39,31,62)       61.4627   61.4914  118.8492 estimate D2E/DX2         !
 ! A86   A(39,31,63)      118.5841  118.7182   61.3666 estimate D2E/DX2         !
 ! A87   A(43,31,62)       61.4434   61.4953  118.8238 estimate D2E/DX2         !
 ! A88   A(43,31,63)      118.8451  118.7067   61.3697 estimate D2E/DX2         !
 ! A89   A(38,32,44)      121.894   121.9166  121.8486 estimate D2E/DX2         !
 ! A90   A(38,32,62)      119.0456  119.0443   61.0678 estimate D2E/DX2         !
 ! A91   A(38,32,63)       60.9814   61.0778  119.0633 estimate D2E/DX2         !
 ! A92   A(44,32,62)      119.0541  119.0318   61.0645 estimate D2E/DX2         !
 ! A93   A(44,32,63)       61.1051   61.068   119.0833 estimate D2E/DX2         !
 ! A94   A(9,33,10)       116.9457  117.0675  116.9662 estimate D2E/DX2         !
 ! A95   A(9,33,34)       121.9239  122.5908  122.9607 estimate D2E/DX2         !
 ! A96   A(10,33,34)      121.1194  120.3387  120.073  estimate D2E/DX2         !
 ! A97   A(33,34,35)      119.9081  120.9546  120.9417 estimate D2E/DX2         !
 ! A98   A(33,34,39)      121.0568  119.8331  119.8661 estimate D2E/DX2         !
 ! A99   A(35,34,39)      118.9984  119.1791  119.1341 estimate D2E/DX2         !
 ! A100  A(34,35,36)      121.6535  121.2786  121.2856 estimate D2E/DX2         !
 ! A101  A(34,35,40)      119.5602  119.6689  119.674  estimate D2E/DX2         !
 ! A102  A(36,35,40)      118.746   119.0134  118.9947 estimate D2E/DX2         !
 ! A103  A(35,36,37)      120.5663  120.7171  120.7422 estimate D2E/DX2         !
 ! A104  A(35,36,41)      119.0335  119.0123  119.0173 estimate D2E/DX2         !
 ! A105  A(37,36,41)      120.3751  120.2457  120.2125 estimate D2E/DX2         !
 ! A106  A(36,37,38)      120.4159  120.5328  120.5232 estimate D2E/DX2         !
 ! A107  A(36,37,42)      120.8931  120.6705  120.6689 estimate D2E/DX2         !
 ! A108  A(38,37,42)      118.6899  118.7953  118.8069 estimate D2E/DX2         !
 ! A109  A(32,38,37)      121.7171  122.24    122.2362 estimate D2E/DX2         !
 ! A110  A(32,38,39)      119.154   118.9991  119.0121 estimate D2E/DX2         !
 ! A111  A(37,38,39)      119.1264  118.758   118.7457 estimate D2E/DX2         !
 ! A112  A(31,39,34)      122.5355  122.1059  121.9443 estimate D2E/DX2         !
 ! A113  A(31,39,38)      118.3873  118.4984  118.6455 estimate D2E/DX2         !
 ! A114  A(34,39,38)      119.0716  119.389   119.4053 estimate D2E/DX2         !
 ! A115  A(31,43,44)      118.4452  118.4837  118.6513 estimate D2E/DX2         !
 ! A116  A(31,43,48)      122.5454  122.1247  121.9344 estimate D2E/DX2         !
 ! A117  A(44,43,48)      119.0023  119.3848  119.4097 estimate D2E/DX2         !
 ! A118  A(32,44,43)      119.1219  119.0099  119.0034 estimate D2E/DX2         !
 ! A119  A(32,44,45)      121.7186  122.2187  122.2494 estimate D2E/DX2         !
 ! A120  A(43,44,45)      119.1572  118.7686  118.7409 estimate D2E/DX2         !
 ! A121  A(44,45,46)      120.4486  120.528   120.5213 estimate D2E/DX2         !
 ! A122  A(44,45,49)      118.675   118.7904  118.817  estimate D2E/DX2         !
 ! A123  A(46,45,49)      120.8743  120.6802  120.6609 estimate D2E/DX2         !
 ! A124  A(45,46,47)      120.5724  120.7068  120.7457 estimate D2E/DX2         !
 ! A125  A(45,46,50)      120.3824  120.2507  120.209  estimate D2E/DX2         !
 ! A126  A(47,46,50)      119.0268  119.0168  119.0169 estimate D2E/DX2         !
 ! A127  A(46,47,48)      121.5682  121.3037  121.2822 estimate D2E/DX2         !
 ! A128  A(46,47,51)      118.8818  118.9924  118.9961 estimate D2E/DX2         !
 ! A129  A(48,47,51)      119.5167  119.663   119.6765 estimate D2E/DX2         !
 ! A130  A(43,48,47)      119.173   119.1567  119.1323 estimate D2E/DX2         !
 ! A131  A(43,48,52)      120.7367  119.9705  119.8668 estimate D2E/DX2         !
 ! A132  A(47,48,52)      120.068   120.8346  120.9443 estimate D2E/DX2         !
 ! A133  A(23,52,48)      122.208   122.5636  122.9353 estimate D2E/DX2         !
 ! A134  A(23,52,54)      117.0334  117.0493  116.97   estimate D2E/DX2         !
 ! A135  A(48,52,54)      120.7568  120.3865  120.0947 estimate D2E/DX2         !
 ! A136  A(21,54,52)      124.1729  124.391   124.5567 estimate D2E/DX2         !
 ! A137  A(21,54,55)      116.6902  116.7506  116.7927 estimate D2E/DX2         !
 ! A138  A(52,54,55)      119.1369  118.8579  118.6503 estimate D2E/DX2         !
 ! A139  A(17,57,58)      120.5113  120.597   120.3067 estimate D2E/DX2         !
 ! A140  A(17,57,60)      119.6903  119.6479  119.8457 estimate D2E/DX2         !
 ! A141  A(58,57,60)      119.7984  119.7552  119.8473 estimate D2E/DX2         !
 ! A142  A(18,58,57)      120.171   120.2931  120.0864 estimate D2E/DX2         !
 ! A143  A(18,58,59)      119.67    119.4952  119.7296 estimate D2E/DX2         !
 ! A144  A(57,58,59)      120.1589  120.2117  120.1834 estimate D2E/DX2         !
 ! A145  A(13,62,31)        4.2619    8.5014  148.3802 estimate D2E/DX2         !
 ! D1    D(4,1,7,10)      123.4403  118.0929  116.3527 estimate D2E/DX2         !
 ! D2    D(4,1,7,25)      -64.3399  -65.7047  -65.8409 estimate D2E/DX2         !
 ! D3    D(6,1,7,10)       37.4164   28.7733   26.0902 estimate D2E/DX2         !
 ! D4    D(6,1,7,25)     -150.3638 -155.0243 -156.1034 estimate D2E/DX2         !
 ! D5    D(13,1,7,10)    -131.3287 -151.027   -86.5137 estimate D2E/DX2         !
 ! D6    D(13,1,7,25)      40.8912   25.1754   91.2927 estimate D2E/DX2         !
 ! D7    D(21,1,7,10)     -54.1832  -64.0218  -66.9962 estimate D2E/DX2         !
 ! D8    D(21,1,7,25)     118.0367  112.1806  110.8102 estimate D2E/DX2         !
 ! D9    D(61,1,7,10)     175.9895  164.4312 -159.1273 estimate D2E/DX2         !
 ! D10   D(61,1,7,25)     -11.7906  -19.3665   18.679  estimate D2E/DX2         !
 ! D11   D(2,1,15,16)    -124.4805 -132.5668  117.3152 estimate D2E/DX2         !
 ! D12   D(2,1,15,18)      57.6893   46.8712   -7.0382 estimate D2E/DX2         !
 ! D13   D(4,1,15,16)     133.2538  134.5698    8.9434 estimate D2E/DX2         !
 ! D14   D(4,1,15,18)     -44.5764  -45.9921 -115.41   estimate D2E/DX2         !
 ! D15   D(7,1,15,16)      52.7929   45.9148  -62.8995 estimate D2E/DX2         !
 ! D16   D(7,1,15,18)    -125.0374 -134.6472  172.7471 estimate D2E/DX2         !
 ! D17   D(21,1,15,16)    -43.9818  -43.5417 -170.8879 estimate D2E/DX2         !
 ! D18   D(21,1,15,18)    138.188   135.8964   64.7587 estimate D2E/DX2         !
 ! D19   D(2,1,21,27)      63.5241   64.9775   66.0092 estimate D2E/DX2         !
 ! D20   D(2,1,21,54)    -121.1435 -119.1227 -116.3481 estimate D2E/DX2         !
 ! D21   D(6,1,21,27)     149.4265  154.3689  156.2852 estimate D2E/DX2         !
 ! D22   D(6,1,21,54)     -35.2411  -29.7313  -26.0721 estimate D2E/DX2         !
 ! D23   D(7,1,21,27)    -118.0692 -112.6715 -110.6537 estimate D2E/DX2         !
 ! D24   D(7,1,21,54)      57.2632   63.2282   66.989  estimate D2E/DX2         !
 ! D25   D(13,1,21,27)    -41.4827  -25.5371  -91.1356 estimate D2E/DX2         !
 ! D26   D(13,1,21,54)    133.8496  150.3627   86.5071 estimate D2E/DX2         !
 ! D27   D(61,1,21,27)     11.2145   17.5031  -18.5141 estimate D2E/DX2         !
 ! D28   D(61,1,21,54)   -173.4531 -166.5972  159.1286 estimate D2E/DX2         !
 ! D29   D(1,7,10,33)     165.9468  170.9989  173.1231 estimate D2E/DX2         !
 ! D30   D(1,7,10,56)     -13.9947   -8.6878   -6.7473 estimate D2E/DX2         !
 ! D31   D(25,7,10,33)     -6.5047   -5.3429   -4.7922 estimate D2E/DX2         !
 ! D32   D(25,7,10,56)    173.5538  174.9705  175.3374 estimate D2E/DX2         !
 ! D33   D(1,7,25,8)     -169.0072 -174.1697 -177.2166 estimate D2E/DX2         !
 ! D34   D(1,7,25,26)      10.2617    5.9781    1.8568 estimate D2E/DX2         !
 ! D35   D(10,7,25,8)       3.4982    2.1817    0.6474 estimate D2E/DX2         !
 ! D36   D(10,7,25,26)   -177.2328 -177.6705  179.7208 estimate D2E/DX2         !
 ! D37   D(11,8,9,12)      -1.9816   -1.589    -1.8553 estimate D2E/DX2         !
 ! D38   D(11,8,9,33)     178.2172  178.9627  178.9172 estimate D2E/DX2         !
 ! D39   D(25,8,9,12)     176.5371  176.9571  176.5923 estimate D2E/DX2         !
 ! D40   D(25,8,9,33)      -3.2641   -2.4911   -2.6352 estimate D2E/DX2         !
 ! D41   D(9,8,11,19)     107.2219  128.0158  111.5414 estimate D2E/DX2         !
 ! D42   D(25,8,11,19)    -71.2882  -50.5278  -66.9071 estimate D2E/DX2         !
 ! D43   D(9,8,25,7)        1.2673    1.6357    2.9883 estimate D2E/DX2         !
 ! D44   D(9,8,25,26)    -177.9746 -178.5168 -176.0389 estimate D2E/DX2         !
 ! D45   D(11,8,25,7)     179.8103 -179.7923 -178.5399 estimate D2E/DX2         !
 ! D46   D(11,8,25,26)      0.5684    0.0552    2.4328 estimate D2E/DX2         !
 ! D47   D(8,9,33,10)       0.5924   -0.3199   -1.0696 estimate D2E/DX2         !
 ! D48   D(8,9,33,34)    -178.2171  179.0584  179.0325 estimate D2E/DX2         !
 ! D49   D(12,9,33,10)   -179.2095 -179.7707  179.6995 estimate D2E/DX2         !
 ! D50   D(12,9,33,34)      1.981    -0.3925   -0.1985 estimate D2E/DX2         !
 ! D51   D(7,10,33,9)       4.4878    4.4392    5.015  estimate D2E/DX2         !
 ! D52   D(7,10,33,34)   -176.6925 -174.9538 -175.0839 estimate D2E/DX2         !
 ! D53   D(56,10,33,9)   -175.5721 -175.8802 -175.1168 estimate D2E/DX2         !
 ! D54   D(56,10,33,34)     3.2476    4.7267    4.7842 estimate D2E/DX2         !
 ! D55   D(8,11,19,16)    131.1725  117.7639   53.3578 estimate D2E/DX2         !
 ! D56   D(62,13,15,16)     6.8846    0.4233   89.7844 estimate D2E/DX2         !
 ! D57   D(62,13,15,18)  -172.2549 -179.8178  -89.249  estimate D2E/DX2         !
 ! D58   D(14,13,62,31)    -8.4977    1.3918 -178.9573 estimate D2E/DX2         !
 ! D59   D(14,15,16,17)  -179.5933  179.857  -178.3155 estimate D2E/DX2         !
 ! D60   D(14,15,16,19)     0.3048   -0.1263    1.3773 estimate D2E/DX2         !
 ! D61   D(18,15,16,17)    -0.0137    0.0027    0.8132 estimate D2E/DX2         !
 ! D62   D(18,15,16,19)   179.8843 -179.9806 -179.494  estimate D2E/DX2         !
 ! D63   D(14,15,18,20)    -0.5046    0.1848   -1.3207 estimate D2E/DX2         !
 ! D64   D(14,15,18,58)   179.6933 -179.8524  178.3373 estimate D2E/DX2         !
 ! D65   D(16,15,18,20)   179.9143 -179.9624  179.5513 estimate D2E/DX2         !
 ! D66   D(16,15,18,58)     0.1122    0.0003   -0.7907 estimate D2E/DX2         !
 ! D67   D(15,16,17,29)   179.869   179.998   179.6371 estimate D2E/DX2         !
 ! D68   D(15,16,17,57)    -0.0286   -0.0077   -0.1502 estimate D2E/DX2         !
 ! D69   D(19,16,17,29)    -0.028    -0.0189   -0.0534 estimate D2E/DX2         !
 ! D70   D(19,16,17,57)  -179.9255  179.9755 -179.8408 estimate D2E/DX2         !
 ! D71   D(15,16,19,11)   -64.6037  -64.5372  -76.5178 estimate D2E/DX2         !
 ! D72   D(17,16,19,11)   115.2926  115.4798  103.1717 estimate D2E/DX2         !
 ! D73   D(16,17,57,58)    -0.0285    0.0098   -0.5324 estimate D2E/DX2         !
 ! D74   D(16,17,57,60)   179.9605 -179.988   179.6298 estimate D2E/DX2         !
 ! D75   D(29,17,57,58)  -179.9254 -179.9959  179.6812 estimate D2E/DX2         !
 ! D76   D(29,17,57,60)     0.0636    0.0063   -0.1566 estimate D2E/DX2         !
 ! D77   D(15,18,20,24)   -41.2864  -39.6752   72.2844 estimate D2E/DX2         !
 ! D78   D(15,18,20,61)    -3.7953    2.2233   79.8547 estimate D2E/DX2         !
 ! D79   D(58,18,20,24)   138.5119  140.3632 -107.37   estimate D2E/DX2         !
 ! D80   D(58,18,20,61)   176.003  -177.7383  -99.7997 estimate D2E/DX2         !
 ! D81   D(15,18,58,57)    -0.1686    0.0017    0.1052 estimate D2E/DX2         !
 ! D82   D(15,18,58,59)   179.858   179.9964 -179.6257 estimate D2E/DX2         !
 ! D83   D(20,18,58,57)  -179.9687  179.9635  179.7607 estimate D2E/DX2         !
 ! D84   D(20,18,58,59)     0.0579   -0.0418    0.0298 estimate D2E/DX2         !
 ! D85   D(18,20,24,22)   104.3211  118.348   -46.9348 estimate D2E/DX2         !
 ! D86   D(1,21,27,22)    172.8955  173.7347  176.964  estimate D2E/DX2         !
 ! D87   D(1,21,27,28)     -6.7531   -6.4186   -2.0847 estimate D2E/DX2         !
 ! D88   D(54,21,27,22)    -2.5753   -2.3232   -0.7414 estimate D2E/DX2         !
 ! D89   D(54,21,27,28)   177.7761  177.5235 -179.79   estimate D2E/DX2         !
 ! D90   D(1,21,54,52)   -169.421  -170.7064 -172.9049 estimate D2E/DX2         !
 ! D91   D(1,21,54,55)     10.5128    9.0522    6.903  estimate D2E/DX2         !
 ! D92   D(27,21,54,52)     6.0862    5.3464    4.8541 estimate D2E/DX2         !
 ! D93   D(27,21,54,55)  -173.98   -174.895  -175.338  estimate D2E/DX2         !
 ! D94   D(24,22,23,52)  -178.639  -178.8661 -178.9497 estimate D2E/DX2         !
 ! D95   D(24,22,23,53)     1.6489    1.5972    1.8437 estimate D2E/DX2         !
 ! D96   D(27,22,23,52)     2.9985    2.5283    2.6426 estimate D2E/DX2         !
 ! D97   D(27,22,23,53)  -176.7135 -177.0084 -176.5639 estimate D2E/DX2         !
 ! D98   D(23,22,24,20)  -152.0489 -167.1236 -114.2662 estimate D2E/DX2         !
 ! D99   D(27,22,24,20)    26.305    11.4793   64.1416 estimate D2E/DX2         !
 ! D100  D(23,22,27,21)    -1.8623   -1.5128   -2.9271 estimate D2E/DX2         !
 ! D101  D(23,22,27,28)   177.773   178.6454  176.0741 estimate D2E/DX2         !
 ! D102  D(24,22,27,21)   179.7496  179.8569  178.6415 estimate D2E/DX2         !
 ! D103  D(24,22,27,28)    -0.6152    0.0151   -2.3573 estimate D2E/DX2         !
 ! D104  D(22,23,52,48)   179.6445 -179.5503 -179.0167 estimate D2E/DX2         !
 ! D105  D(22,23,52,54)     0.1294    0.1582    1.0323 estimate D2E/DX2         !
 ! D106  D(53,23,52,48)    -0.6423   -0.0113    0.1935 estimate D2E/DX2         !
 ! D107  D(53,23,52,54)   179.8427  179.6972 -179.7574 estimate D2E/DX2         !
 ! D108  D(43,31,39,34)  -171.5744 -171.0588 -171.1073 estimate D2E/DX2         !
 ! D109  D(43,31,39,38)     7.5598    7.9929    8.0804 estimate D2E/DX2         !
 ! D110  D(62,31,39,34)  -178.3413 -178.5638   10.4416 estimate D2E/DX2         !
 ! D111  D(62,31,39,38)     0.7929    0.4878 -170.3707 estimate D2E/DX2         !
 ! D112  D(63,31,39,34)     7.943     8.319  -178.7139 estimate D2E/DX2         !
 ! D113  D(63,31,39,38)  -172.9228 -172.6293    0.4738 estimate D2E/DX2         !
 ! D114  D(39,31,43,44)    -6.806    -8.0368   -8.1047 estimate D2E/DX2         !
 ! D115  D(39,31,43,48)   172.2168  171.0122  171.1092 estimate D2E/DX2         !
 ! D116  D(62,31,43,44)    -0.0378   -0.532   170.3468 estimate D2E/DX2         !
 ! D117  D(62,31,43,48)   178.9849  178.517   -10.4393 estimate D2E/DX2         !
 ! D118  D(63,31,43,44)   173.6778  172.5853   -0.4984 estimate D2E/DX2         !
 ! D119  D(63,31,43,48)    -7.2994   -8.3657  178.7155 estimate D2E/DX2         !
 ! D120  D(39,31,62,13)    83.1262   86.7475   89.3766 estimate D2E/DX2         !
 ! D121  D(43,31,62,13)   -90.3824  -86.0571  -89.1292 estimate D2E/DX2         !
 ! D122  D(44,32,38,37)   178.5897  178.0761  178.3863 estimate D2E/DX2         !
 ! D123  D(44,32,38,39)    -1.9927   -2.5547   -2.5202 estimate D2E/DX2         !
 ! D124  D(62,32,38,37)    -0.4835   -0.9271 -175.4289 estimate D2E/DX2         !
 ! D125  D(62,32,38,39)   178.9341  178.4421    3.6647 estimate D2E/DX2         !
 ! D126  D(63,32,38,37)  -176.3118 -176.3626   -0.8107 estimate D2E/DX2         !
 ! D127  D(63,32,38,39)     3.1058    3.0066  178.2828 estimate D2E/DX2         !
 ! D128  D(38,32,44,43)     2.7554    2.5098    2.496  estimate D2E/DX2         !
 ! D129  D(38,32,44,45)  -177.8006 -178.1172 -178.4259 estimate D2E/DX2         !
 ! D130  D(62,32,44,43)  -178.1714 -178.4869   -3.689  estimate D2E/DX2         !
 ! D131  D(62,32,44,45)     1.2725    0.8861  175.3891 estimate D2E/DX2         !
 ! D132  D(63,32,44,43)    -2.3369   -3.052  -178.3071 estimate D2E/DX2         !
 ! D133  D(63,32,44,45)   177.107   176.3211    0.771  estimate D2E/DX2         !
 ! D134  D(9,33,34,35)     45.9631   51.0888   50.1007 estimate D2E/DX2         !
 ! D135  D(9,33,34,39)   -136.2642 -131.0271 -132.6936 estimate D2E/DX2         !
 ! D136  D(10,33,34,35)  -132.7973 -129.5527 -129.7941 estimate D2E/DX2         !
 ! D137  D(10,33,34,39)    44.9755   48.3314   47.4115 estimate D2E/DX2         !
 ! D138  D(33,34,35,36)   177.0123  176.8502  176.1599 estimate D2E/DX2         !
 ! D139  D(33,34,35,40)    -0.6484   -0.8529   -1.356  estimate D2E/DX2         !
 ! D140  D(39,34,35,36)    -0.8063   -1.0475   -1.0659 estimate D2E/DX2         !
 ! D141  D(39,34,35,40)  -178.4669 -178.7507 -178.5818 estimate D2E/DX2         !
 ! D142  D(33,34,39,31)     5.3805    5.0696    6.0886 estimate D2E/DX2         !
 ! D143  D(33,34,39,38)  -173.7481 -173.9738 -173.0931 estimate D2E/DX2         !
 ! D144  D(35,34,39,31)  -176.8269 -177.0086 -176.6552 estimate D2E/DX2         !
 ! D145  D(35,34,39,38)     4.0446    3.9479    4.1631 estimate D2E/DX2         !
 ! D146  D(34,35,36,37)    -2.1158   -1.7539   -1.9335 estimate D2E/DX2         !
 ! D147  D(34,35,36,41)   179.7037 -179.946   179.9868 estimate D2E/DX2         !
 ! D148  D(40,35,36,37)   175.5634  175.9639  175.5989 estimate D2E/DX2         !
 ! D149  D(40,35,36,41)    -2.6171   -2.2281   -2.4808 estimate D2E/DX2         !
 ! D150  D(35,36,37,38)     1.6742    1.5673    1.7411 estimate D2E/DX2         !
 ! D151  D(35,36,37,42)  -177.9296 -177.994  -177.8964 estimate D2E/DX2         !
 ! D152  D(41,36,37,38)   179.8302  179.737   179.7978 estimate D2E/DX2         !
 ! D153  D(41,36,37,42)     0.2264    0.1757    0.1604 estimate D2E/DX2         !
 ! D154  D(36,37,38,32)  -178.9663 -179.2627 -179.5119 estimate D2E/DX2         !
 ! D155  D(36,37,38,39)     1.6159    1.3667    1.3922 estimate D2E/DX2         !
 ! D156  D(42,37,38,32)     0.6461    0.3067    0.1322 estimate D2E/DX2         !
 ! D157  D(42,37,38,39)  -178.7717 -179.0639 -178.9637 estimate D2E/DX2         !
 ! D158  D(32,38,39,31)    -3.0474   -2.5673   -2.6519 estimate D2E/DX2         !
 ! D159  D(32,38,39,34)   176.1175  176.5107  176.5569 estimate D2E/DX2         !
 ! D160  D(37,38,39,31)   176.3854  176.824   176.4737 estimate D2E/DX2         !
 ! D161  D(37,38,39,34)    -4.4497   -4.0979   -4.3176 estimate D2E/DX2         !
 ! D162  D(31,43,44,32)     1.5355    2.6566    2.6995 estimate D2E/DX2         !
 ! D163  D(31,43,44,45)  -177.9228 -176.7383 -176.4112 estimate D2E/DX2         !
 ! D164  D(48,43,44,32)  -177.5226 -176.4191 -176.5346 estimate D2E/DX2         !
 ! D165  D(48,43,44,45)     3.0191    4.186     4.3546 estimate D2E/DX2         !
 ! D166  D(31,43,48,47)   178.0752  176.9457  176.5563 estimate D2E/DX2         !
 ! D167  D(31,43,48,52)    -3.6404   -5.2827   -6.1537 estimate D2E/DX2         !
 ! D168  D(44,43,48,47)    -2.9073   -4.0136   -4.2356 estimate D2E/DX2         !
 ! D169  D(44,43,48,52)   175.3771  173.758   173.0544 estimate D2E/DX2         !
 ! D170  D(32,44,45,46)   179.5238  179.2214  179.5474 estimate D2E/DX2         !
 ! D171  D(32,44,45,49)     0.0521   -0.3466   -0.1163 estimate D2E/DX2         !
 ! D172  D(43,44,45,46)    -1.0325   -1.4041   -1.3722 estimate D2E/DX2         !
 ! D173  D(43,44,45,49)   179.4959  179.0279  178.9641 estimate D2E/DX2         !
 ! D174  D(44,45,46,47)    -1.1113   -1.6024   -1.7832 estimate D2E/DX2         !
 ! D175  D(44,45,46,50)  -179.5342 -179.7387 -179.8274 estimate D2E/DX2         !
 ! D176  D(49,45,46,47)   178.3486  177.9574  177.8742 estimate D2E/DX2         !
 ! D177  D(49,45,46,50)    -0.0743   -0.1789   -0.1699 estimate D2E/DX2         !
 ! D178  D(45,46,47,48)     1.2418    1.8123    1.9391 estimate D2E/DX2         !
 ! D179  D(45,46,47,51)  -176.6503 -175.853  -175.6076 estimate D2E/DX2         !
 ! D180  D(50,46,47,48)   179.6858  179.9713 -179.9938 estimate D2E/DX2         !
 ! D181  D(50,46,47,51)     1.7937    2.306     2.4595 estimate D2E/DX2         !
 ! D182  D(46,47,48,43)     0.8074    1.0412    1.1177 estimate D2E/DX2         !
 ! D183  D(46,47,48,52)  -177.4886 -176.7106 -176.1422 estimate D2E/DX2         !
 ! D184  D(51,47,48,43)   178.6864  178.691   178.648  estimate D2E/DX2         !
 ! D185  D(51,47,48,52)     0.3904    0.9392    1.388  estimate D2E/DX2         !
 ! D186  D(43,48,52,23)   133.0969  131.8205  132.61   estimate D2E/DX2         !
 ! D187  D(43,48,52,54)   -47.4058  -47.8786  -47.4405 estimate D2E/DX2         !
 ! D188  D(47,48,52,23)   -48.6341  -50.4459  -50.15   estimate D2E/DX2         !
 ! D189  D(47,48,52,54)   130.8632  129.855   129.7995 estimate D2E/DX2         !
 ! D190  D(23,52,54,21)    -4.883    -4.2914   -5.0121 estimate D2E/DX2         !
 ! D191  D(23,52,54,55)   175.1847  175.9547  175.1833 estimate D2E/DX2         !
 ! D192  D(48,52,54,21)   175.5945  175.4238  175.0354 estimate D2E/DX2         !
 ! D193  D(48,52,54,55)    -4.3378   -4.3301   -4.7691 estimate D2E/DX2         !
 ! D194  D(17,57,58,18)     0.1289   -0.0068    0.5552 estimate D2E/DX2         !
 ! D195  D(17,57,58,59)  -179.8979  179.9986 -179.7151 estimate D2E/DX2         !
 ! D196  D(60,57,58,18)  -179.8601  179.991  -179.607  estimate D2E/DX2         !
 ! D197  D(60,57,58,59)     0.1131   -0.0036    0.1226 estimate D2E/DX2         !
 --------------------------------------------------------------------------------
 Trust Radius=3.00D-01 FncErr=1.00D-07 GrdErr=1.00D-06 EigMax=2.50D+02 EigMin=1.00D-04
 Number of steps in this run=    378 maximum allowed number of steps=    378.
 Search for a saddle point of order  1.
 GradGradGradGradGradGradGradGradGradGradGradGradGradGradGradGradGradGrad

 Stoichiometry    C34H21BrMnN3O3
 Framework group  C1[X(C34H21BrMnN3O3)]
 Deg. of freedom   183
 Full point group                 C1      NOp   1
 Largest Abelian subgroup         C1      NOp   1
 Largest concise Abelian subgroup C1      NOp   1
                         Standard orientation:                         
 ---------------------------------------------------------------------
 Center     Atomic      Atomic             Coordinates (Angstroms)
 Number     Number       Type             X           Y           Z
 ---------------------------------------------------------------------
      1         25           0        1.333775   -1.101115   -1.156891
      2          6           0        2.079382   -2.766861   -0.896837
      3          8           0        2.329178   -3.865350   -0.698129
      4          6           0        2.134640   -0.684240   -2.766866
      5          8           0        2.416255   -0.377505   -3.832513
      6          6           0        0.100006   -1.937000   -2.117528
      7          7           0        0.331432    0.888357   -1.427772
      8          6           0        0.468195    3.279507   -1.374621
      9          6           0       -0.916188    3.380310   -1.278753
     10          6           0       -0.999951    1.000632   -1.433474
     11          1           0        1.101898    4.168149   -1.379686
     12          1           0       -1.397070    4.356414   -1.173735
     13          7           0        2.375425    0.124227    0.244726
     14          6           0        2.927296    0.820228    0.978965
     15          6           0        3.677562    1.682958    1.846324
     16          6           0        3.007369    2.456074    2.805507
     17          6           0        3.742582    3.295609    3.635841
     18          6           0        5.071308    1.744847    1.713673
     19          1           0        1.920210    2.394155    2.890883
     20          1           0        5.575866    1.133793    0.961324
     21          7           0        0.259478   -1.569640    0.732057
     22          6           0        0.268142   -1.894629    3.104611
     23          6           0       -1.121423   -1.825457    3.143646
     24          1           0        0.852791   -2.037998    4.014965
     25          6           0        1.049939    2.021011   -1.433957
     26          1           0        2.135996    1.913297   -1.476282
     27          6           0        0.917981   -1.744266    1.887884
     28          1           0        2.008717   -1.758068    1.834296
     29          1           0        3.228259    3.902937    4.384314
     30          8           0       -0.659752   -2.515071   -2.764539
     31          6           0       -3.288738    0.436944    0.455071
     32          6           0       -6.064220    0.367593    0.251214
     33          6           0       -1.688341    2.215357   -1.314088
     34          6           0       -3.177083    2.254527   -1.255569
     35          6           0       -3.869372    3.145116   -2.037082
     36          6           0       -5.295626    3.172050   -2.057606
     37          6           0       -6.016920    2.275397   -1.325368
     38          6           0       -5.351681    1.313958   -0.495057
     39          6           0       -3.917720    1.330411   -0.417631
     40          1           0       -3.321116    3.828607   -2.690938
     41          1           0       -5.803187    3.902622   -2.692255
     42          1           0       -7.109566    2.269529   -1.363216
     43          6           0       -3.985002   -0.568513    1.134173
     44          6           0       -5.417650   -0.591303    1.040442
     45          6           0       -6.149583   -1.588001    1.766690
     46          6           0       -5.492591   -2.516012    2.520193
     47          6           0       -4.067274   -2.525280    2.579546
     48          6           0       -3.314520   -1.595481    1.908364
     49          1           0       -7.240602   -1.592919    1.696290
     50          1           0       -6.050997   -3.279631    3.067057
     51          1           0       -3.567484   -3.314800    3.147257
     52          6           0       -1.827556   -1.669723    1.948135
     53          1           0       -1.655984   -1.887001    4.095084
     54          6           0       -1.075012   -1.595176    0.769495
     55          1           0       -1.593041   -1.553362   -0.189752
     56          1           0       -1.567884    0.075152   -1.537853
     57          6           0        5.131373    3.361072    3.509233
     58          6           0        5.793213    2.588168    2.553305
     59          1           0        6.880294    2.642646    2.460338
     60          1           0        5.704095    4.022987    4.163906
     61         35           0        4.356612   -1.326485   -1.333356
     62          1           0       -7.157040    0.367990    0.204606
     63          1           0       -2.214974    0.524160    0.604267
 ---------------------------------------------------------------------
 Rotational constants (GHZ):           0.1028442           0.0492155           0.0479114
 General basis read from cards:  (5D, 7F)
 There are   802 symmetry adapted cartesian basis functions of A   symmetry.
 There are   751 symmetry adapted basis functions of A   symmetry.
   751 basis functions,  1339 primitive gaussians,   802 cartesian basis functions
   165 alpha electrons      165 beta electrons
       nuclear repulsion energy      6026.9476486796 Hartrees.
 NAtoms=   63 NActive=   63 NUniq=   63 SFac= 1.00D+00 NAtFMM=   60 NAOKFM=T Big=T
 Integral buffers will be    131072 words long.
 Raffenetti 2 integral format.
 Two-electron integral symmetry is turned on.
 Nuclear repulsion after empirical dispersion term =     6026.8837599467 Hartrees.
 ------------------------------------------------------------------------------
 Polarizable Continuum Model (PCM)
 =================================
 Model                : PCM.
 Atomic radii         : UFF (Universal Force Field).
 Polarization charges : Total charges.
 Charge compensation  : None.
 Solution method      : On-the-fly selection.
 Cavity type          : Scaled VdW (van der Waals Surface) (Alpha=1.100).
 Cavity algorithm     : GePol (No added spheres)
                        Default sphere list used, NSphG=   63.
                        Lebedev-Laikov grids with approx.  5.0 points / Ang**2.
                        Smoothing algorithm: York/Karplus (Gamma=1.0000).
                        Polarization charges: spherical gaussians, with
                                              point-specific exponents (IZeta= 3).
                        Self-potential: point-specific (ISelfS= 7).
                        Self-field    : sphere-specific E.n sum rule (ISelfD= 2).
 1st derivatives      : Analytical E(r).r(x)/FMM algorithm (CHGder, D1EAlg=3).
                        Cavity 1st derivative terms included.
 Solvent              : TetraHydroFuran, Eps=   7.425700 Eps(inf)=   1.974025
 ------------------------------------------------------------------------------
 One-electron integrals computed using PRISM.
 PrsmSu:  requested number of processors reduced to:  11 ShMem   1 Linda.
 NBasis=   751 RedAO= T EigKep=  2.25D-04  NBF=   751
 NBsUse=   751 1.00D-06 EigRej= -1.00D+00 NBFU=   751
 ExpMin= 3.93D-02 ExpMax= 2.77D+05 ExpMxC= 1.70D+04 IAcc=3 IRadAn=         5 AccDes= 0.00D+00
 Harris functional with IExCor= 4639 and IRadAn=       5 diagonalized for initial guess.
 HarFok:  IExCor= 4639 AccDes= 0.00D+00 IRadAn=         5 IDoV= 1 UseB2=F ITyADJ=14
 ICtDFT=  3500011 ScaDFX=  1.000000  1.000000  1.000000  1.000000
 FoFCou: FMM=F IPFlag=           0 FMFlag=      100000 FMFlg1=        2001
         NFxFlg=           0 DoJE=T BraDBF=F KetDBF=T FulRan=T
         wScrn=  0.000000 ICntrl=       500 IOpCl=  0 I1Cent=   200000004 NGrid=           0
         NMat0=    1 NMatS0=      1 NMatT0=    0 NMatD0=    1 NMtDS0=    0 NMtDT0=    0
 Petite list used in FoFCou.
 Requested convergence on RMS density matrix=1.00D-08 within 128 cycles.
 Requested convergence on MAX density matrix=1.00D-06.
 Requested convergence on             energy=1.00D-06.
 No special actions if energy rises.
 CoulSu:  requested number of processors reduced to:  10 ShMem   1 Linda.
 Inv3:  Mode=1 IEnd=    66835200.
 Iteration    1 A*A^-1 deviation from unit magnitude is 3.44D-15 for   1007.
 Iteration    1 A*A^-1 deviation from orthogonality  is 2.17D-15 for   3101   2787.
 Iteration    1 A^-1*A deviation from unit magnitude is 3.22D-15 for   3283.
 Iteration    1 A^-1*A deviation from orthogonality  is 2.31D-15 for   4119   2776.
 CoulSu:  requested number of processors reduced to:  10 ShMem   1 Linda.
 CoulSu:  requested number of processors reduced to:  10 ShMem   1 Linda.
 Error on total polarization charges =  0.02057
 SCF Done:  E(RwB97XD) =  -5421.43009615     A.U. after   20 cycles
            NFock= 20  Conv=0.67D-08     -V/T= 2.0041

 **********************************************************************

            Population analysis using the SCF density.

 **********************************************************************

 Orbital symmetries:
       Occupied  (A) (A) (A) (A) (A) (A) (A) (A) (A) (A) (A) (A)
                 (A) (A) (A) (A) (A) (A) (A) (A) (A) (A) (A) (A)
                 (A) (A) (A) (A) (A) (A) (A) (A) (A) (A) (A) (A)
                 (A) (A) (A) (A) (A) (A) (A) (A) (A) (A) (A) (A)
                 (A) (A) (A) (A) (A) (A) (A) (A) (A) (A) (A) (A)
                 (A) (A) (A) (A) (A) (A) (A) (A) (A) (A) (A) (A)
                 (A) (A) (A) (A) (A) (A) (A) (A) (A) (A) (A) (A)
                 (A) (A) (A) (A) (A) (A) (A) (A) (A) (A) (A) (A)
                 (A) (A) (A) (A) (A) (A) (A) (A) (A) (A) (A) (A)
                 (A) (A) (A) (A) (A) (A) (A) (A) (A) (A) (A) (A)
                 (A) (A) (A) (A) (A) (A) (A) (A) (A) (A) (A) (A)
                 (A) (A) (A) (A) (A) (A) (A) (A) (A) (A) (A) (A)
                 (A) (A) (A) (A) (A) (A) (A) (A) (A) (A) (A) (A)
                 (A) (A) (A) (A) (A) (A) (A) (A) (A)
       Virtual   (A) (A) (A) (A) (A) (A) (A) (A) (A) (A) (A) (A)
                 (A) (A) (A) (A) (A) (A) (A) (A) (A) (A) (A) (A)
                 (A) (A) (A) (A) (A) (A) (A) (A) (A) (A) (A) (A)
                 (A) (A) (A) (A) (A) (A) (A) (A) (A) (A) (A) (A)
                 (A) (A) (A) (A) (A) (A) (A) (A) (A) (A) (A) (A)
                 (A) (A) (A) (A) (A) (A) (A) (A) (A) (A) (A) (A)
                 (A) (A) (A) (A) (A) (A) (A) (A) (A) (A) (A) (A)
                 (A) (A) (A) (A) (A) (A) (A) (A) (A) (A) (A) (A)
                 (A) (A) (A) (A) (A) (A) (A) (A) (A) (A) (A) (A)
                 (A) (A) (A) (A) (A) (A) (A) (A) (A) (A) (A) (A)
                 (A) (A) (A) (A) (A) (A) (A) (A) (A) (A) (A) (A)
                 (A) (A) (A) (A) (A) (A) (A) (A) (A) (A) (A) (A)
                 (A) (A) (A) (A) (A) (A) (A) (A) (A) (A) (A) (A)
                 (A) (A) (A) (A) (A) (A) (A) (A) (A) (A) (A) (A)
                 (A) (A) (A) (A) (A) (A) (A) (A) (A) (A) (A) (A)
                 (A) (A) (A) (A) (A) (A) (A) (A) (A) (A) (A) (A)
                 (A) (A) (A) (A) (A) (A) (A) (A) (A) (A) (A) (A)
                 (A) (A) (A) (A) (A) (A) (A) (A) (A) (A) (A) (A)
                 (A) (A) (A) (A) (A) (A) (A) (A) (A) (A) (A) (A)
                 (A) (A) (A) (A) (A) (A) (A) (A) (A) (A) (A) (A)
                 (A) (A) (A) (A) (A) (A) (A) (A) (A) (A) (A) (A)
                 (A) (A) (A) (A) (A) (A) (A) (A) (A) (A) (A) (A)
                 (A) (A) (A) (A) (A) (A) (A) (A) (A) (A) (A) (A)
                 (A) (A) (A) (A) (A) (A) (A) (A) (A) (A) (A) (A)
                 (A) (A) (A) (A) (A) (A) (A) (A) (A) (A) (A) (A)
                 (A) (A) (A) (A) (A) (A) (A) (A) (A) (A) (A) (A)
                 (A) (A) (A) (A) (A) (A) (A) (A) (A) (A) (A) (A)
                 (A) (A) (A) (A) (A) (A) (A) (A) (A) (A) (A) (A)
                 (A) (A) (A) (A) (A) (A) (A) (A) (A) (A) (A) (A)
                 (A) (A) (A) (A) (A) (A) (A) (A) (A) (A) (A) (A)
                 (A) (A) (A) (A) (A) (A) (A) (A) (A) (A) (A) (A)
                 (A) (A) (A) (A) (A) (A) (A) (A) (A) (A) (A) (A)
                 (A) (A) (A) (A) (A) (A) (A) (A) (A) (A) (A) (A)
                 (A) (A) (A) (A) (A) (A) (A) (A) (A) (A) (A) (A)
                 (A) (A) (A) (A) (A) (A) (A) (A) (A) (A) (A) (A)
                 (A) (A) (A) (A) (A) (A) (A) (A) (A) (A) (A) (A)
                 (A) (A) (A) (A) (A) (A) (A) (A) (A) (A) (A) (A)
                 (A) (A) (A) (A) (A) (A) (A) (A) (A) (A) (A) (A)
                 (A) (A) (A) (A) (A) (A) (A) (A) (A) (A) (A) (A)
                 (A) (A) (A) (A) (A) (A) (A) (A) (A) (A) (A) (A)
                 (A) (A) (A) (A) (A) (A) (A) (A) (A) (A) (A) (A)
                 (A) (A) (A) (A) (A) (A) (A) (A) (A) (A) (A) (A)
                 (A) (A) (A) (A) (A) (A) (A) (A) (A) (A) (A) (A)
                 (A) (A) (A) (A) (A) (A) (A) (A) (A) (A) (A) (A)
                 (A) (A) (A) (A) (A) (A) (A) (A) (A) (A) (A) (A)
                 (A) (A) (A) (A) (A) (A) (A) (A) (A) (A) (A) (A)
                 (A) (A) (A) (A) (A) (A) (A) (A) (A) (A) (A) (A)
                 (A) (A) (A) (A) (A) (A) (A) (A) (A) (A) (A) (A)
                 (A) (A) (A) (A) (A) (A) (A) (A) (A) (A)
 The electronic state is 1-A.
 Alpha  occ. eigenvalues -- -482.95931-235.68519 -62.54001 -56.34569 -56.34552
 Alpha  occ. eigenvalues --  -56.34532 -27.45270 -23.51186 -23.51076 -23.50535
 Alpha  occ. eigenvalues --  -19.32418 -19.32386 -19.32349 -14.49839 -14.49747
 Alpha  occ. eigenvalues --  -14.48270 -10.40394 -10.40370 -10.40003 -10.37560
 Alpha  occ. eigenvalues --  -10.36546 -10.36544 -10.36076 -10.36058 -10.35928
 Alpha  occ. eigenvalues --  -10.34322 -10.34296 -10.34210 -10.34199 -10.33758
 Alpha  occ. eigenvalues --  -10.33529 -10.33436 -10.33403 -10.33176 -10.33174
 Alpha  occ. eigenvalues --  -10.33087 -10.33060 -10.32920 -10.32730 -10.32727
 Alpha  occ. eigenvalues --  -10.32620 -10.32507 -10.32151 -10.32141 -10.31962
 Alpha  occ. eigenvalues --  -10.31932 -10.31864 -10.31857 -10.31715 -10.31708
 Alpha  occ. eigenvalues --   -8.70800  -6.52543  -6.52473  -6.52402  -3.24696
 Alpha  occ. eigenvalues --   -2.63054  -2.63047  -2.62988  -2.62932  -2.62925
 Alpha  occ. eigenvalues --   -2.10550  -2.10127  -2.09074  -1.21580  -1.21516
 Alpha  occ. eigenvalues --   -1.21065  -1.07862  -1.07610  -1.03873  -1.00058
 Alpha  occ. eigenvalues --   -0.98307  -0.97369  -0.94117  -0.92922  -0.91173
 Alpha  occ. eigenvalues --   -0.90470  -0.89458  -0.88570  -0.87118  -0.86667
 Alpha  occ. eigenvalues --   -0.85011  -0.84767  -0.81704  -0.76497  -0.76375
 Alpha  occ. eigenvalues --   -0.75454  -0.75181  -0.75016  -0.74881  -0.74089
 Alpha  occ. eigenvalues --   -0.72270  -0.72053  -0.69927  -0.68722  -0.67044
 Alpha  occ. eigenvalues --   -0.66019  -0.64469  -0.64380  -0.64175  -0.63614
 Alpha  occ. eigenvalues --   -0.63233  -0.62335  -0.61852  -0.60600  -0.59713
 Alpha  occ. eigenvalues --   -0.59579  -0.57623  -0.57467  -0.57424  -0.57086
 Alpha  occ. eigenvalues --   -0.56205  -0.55923  -0.55673  -0.55490  -0.55333
 Alpha  occ. eigenvalues --   -0.54896  -0.54559  -0.54197  -0.53986  -0.53638
 Alpha  occ. eigenvalues --   -0.53325  -0.53231  -0.53013  -0.52638  -0.52209
 Alpha  occ. eigenvalues --   -0.52119  -0.51653  -0.51515  -0.51047  -0.50946
 Alpha  occ. eigenvalues --   -0.50868  -0.50723  -0.49794  -0.49194  -0.48995
 Alpha  occ. eigenvalues --   -0.48318  -0.48236  -0.47438  -0.47165  -0.47090
 Alpha  occ. eigenvalues --   -0.46218  -0.45839  -0.44714  -0.44682  -0.43506
 Alpha  occ. eigenvalues --   -0.42759  -0.41803  -0.40886  -0.40557  -0.40307
 Alpha  occ. eigenvalues --   -0.39813  -0.39206  -0.37605  -0.36304  -0.35907
 Alpha  occ. eigenvalues --   -0.35867  -0.33440  -0.33234  -0.33193  -0.31568
 Alpha  occ. eigenvalues --   -0.30845  -0.29638  -0.29486  -0.27874  -0.26156
 Alpha virt. eigenvalues --   -0.02857  -0.00391   0.00526   0.00716   0.02105
 Alpha virt. eigenvalues --    0.02217   0.02567   0.03692   0.04898   0.05502
 Alpha virt. eigenvalues --    0.06344   0.06880   0.07901   0.08389   0.08871
 Alpha virt. eigenvalues --    0.09168   0.09561   0.10159   0.11689   0.12201
 Alpha virt. eigenvalues --    0.12796   0.13376   0.13544   0.13804   0.14287
 Alpha virt. eigenvalues --    0.14542   0.14862   0.15338   0.15510   0.16017
 Alpha virt. eigenvalues --    0.16470   0.16649   0.17412   0.18134   0.18873
 Alpha virt. eigenvalues --    0.18990   0.19573   0.19992   0.20426   0.20723
 Alpha virt. eigenvalues --    0.21278   0.21920   0.22186   0.22354   0.22642
 Alpha virt. eigenvalues --    0.22906   0.23099   0.23302   0.24597   0.25154
 Alpha virt. eigenvalues --    0.26343   0.27009   0.27660   0.27902   0.28733
 Alpha virt. eigenvalues --    0.29765   0.30173   0.30318   0.30467   0.30821
 Alpha virt. eigenvalues --    0.31486   0.32300   0.32423   0.32949   0.32977
 Alpha virt. eigenvalues --    0.32985   0.33515   0.34043   0.34170   0.34570
 Alpha virt. eigenvalues --    0.34696   0.35376   0.35468   0.35827   0.35936
 Alpha virt. eigenvalues --    0.36557   0.36793   0.37110   0.37161   0.37724
 Alpha virt. eigenvalues --    0.38346   0.38562   0.39814   0.39887   0.40225
 Alpha virt. eigenvalues --    0.40339   0.41060   0.41758   0.41900   0.42207
 Alpha virt. eigenvalues --    0.42565   0.42609   0.43208   0.44002   0.44487
 Alpha virt. eigenvalues --    0.44908   0.46665   0.46927   0.46988   0.47499
 Alpha virt. eigenvalues --    0.47659   0.48144   0.48283   0.49278   0.49405
 Alpha virt. eigenvalues --    0.49842   0.50346   0.51235   0.51464   0.51720
 Alpha virt. eigenvalues --    0.52250   0.52383   0.52758   0.52893   0.52976
 Alpha virt. eigenvalues --    0.53355   0.53592   0.54404   0.54510   0.54867
 Alpha virt. eigenvalues --    0.55066   0.55485   0.55886   0.56104   0.56452
 Alpha virt. eigenvalues --    0.56785   0.57266   0.57884   0.57977   0.58187
 Alpha virt. eigenvalues --    0.58842   0.59280   0.59678   0.60128   0.60388
 Alpha virt. eigenvalues --    0.60743   0.61608   0.61763   0.62299   0.62519
 Alpha virt. eigenvalues --    0.63302   0.63863   0.64380   0.64522   0.64898
 Alpha virt. eigenvalues --    0.65514   0.66348   0.66916   0.67035   0.67281
 Alpha virt. eigenvalues --    0.67871   0.68057   0.68500   0.68678   0.69272
 Alpha virt. eigenvalues --    0.70074   0.70342   0.70613   0.71074   0.71360
 Alpha virt. eigenvalues --    0.71705   0.72189   0.72329   0.72749   0.72862
 Alpha virt. eigenvalues --    0.72995   0.73210   0.73536   0.73620   0.73954
 Alpha virt. eigenvalues --    0.74555   0.74718   0.74948   0.75264   0.75554
 Alpha virt. eigenvalues --    0.75927   0.76085   0.76248   0.76480   0.76979
 Alpha virt. eigenvalues --    0.77119   0.77450   0.77734   0.78229   0.78855
 Alpha virt. eigenvalues --    0.79198   0.79528   0.79556   0.79771   0.80119
 Alpha virt. eigenvalues --    0.80657   0.81213   0.81474   0.81858   0.81994
 Alpha virt. eigenvalues --    0.82203   0.82753   0.82969   0.83399   0.83604
 Alpha virt. eigenvalues --    0.84241   0.84513   0.84729   0.85349   0.85437
 Alpha virt. eigenvalues --    0.85820   0.86040   0.86252   0.86944   0.87379
 Alpha virt. eigenvalues --    0.87703   0.88007   0.88499   0.88640   0.89607
 Alpha virt. eigenvalues --    0.90307   0.90701   0.91231   0.91342   0.91457
 Alpha virt. eigenvalues --    0.92217   0.92321   0.92775   0.93724   0.94014
 Alpha virt. eigenvalues --    0.94779   0.95238   0.95977   0.96191   0.96576
 Alpha virt. eigenvalues --    0.97197   0.97372   0.97749   0.97863   0.98991
 Alpha virt. eigenvalues --    0.99443   1.00941   1.01098   1.01490   1.02281
 Alpha virt. eigenvalues --    1.03434   1.04507   1.05133   1.05355   1.06935
 Alpha virt. eigenvalues --    1.08831   1.09266   1.09839   1.11085   1.12516
 Alpha virt. eigenvalues --    1.13217   1.14014   1.14601   1.15914   1.16134
 Alpha virt. eigenvalues --    1.16430   1.16573   1.16620   1.17215   1.17540
 Alpha virt. eigenvalues --    1.18085   1.18761   1.20128   1.20802   1.22597
 Alpha virt. eigenvalues --    1.22741   1.23837   1.25134   1.25707   1.26157
 Alpha virt. eigenvalues --    1.26626   1.26650   1.27418   1.28056   1.28246
 Alpha virt. eigenvalues --    1.28772   1.29348   1.29483   1.30351   1.30517
 Alpha virt. eigenvalues --    1.30536   1.31008   1.31228   1.31752   1.31955
 Alpha virt. eigenvalues --    1.32318   1.33334   1.33782   1.34417   1.34689
 Alpha virt. eigenvalues --    1.35392   1.35562   1.35746   1.35964   1.36053
 Alpha virt. eigenvalues --    1.36548   1.37021   1.37284   1.38704   1.38948
 Alpha virt. eigenvalues --    1.39185   1.39956   1.41050   1.41677   1.41900
 Alpha virt. eigenvalues --    1.42479   1.44216   1.44792   1.45645   1.46365
 Alpha virt. eigenvalues --    1.47033   1.47514   1.50224   1.50894   1.52671
 Alpha virt. eigenvalues --    1.54201   1.54995   1.56065   1.59220   1.59583
 Alpha virt. eigenvalues --    1.60415   1.61230   1.64125   1.64493   1.65446
 Alpha virt. eigenvalues --    1.66809   1.67025   1.67536   1.68165   1.69334
 Alpha virt. eigenvalues --    1.70633   1.71811   1.72655   1.73036   1.73298
 Alpha virt. eigenvalues --    1.73499   1.74094   1.74605   1.74814   1.75398
 Alpha virt. eigenvalues --    1.75562   1.76916   1.77207   1.77484   1.78376
 Alpha virt. eigenvalues --    1.78438   1.78900   1.79049   1.79384   1.79814
 Alpha virt. eigenvalues --    1.80014   1.80657   1.80977   1.81045   1.81260
 Alpha virt. eigenvalues --    1.81538   1.81705   1.81805   1.82049   1.82338
 Alpha virt. eigenvalues --    1.82741   1.83115   1.83463   1.83754   1.83893
 Alpha virt. eigenvalues --    1.84063   1.84437   1.84740   1.85562   1.86076
 Alpha virt. eigenvalues --    1.86253   1.86391   1.87040   1.87532   1.88211
 Alpha virt. eigenvalues --    1.88852   1.89754   1.90000   1.90250   1.90427
 Alpha virt. eigenvalues --    1.91090   1.91231   1.92462   1.92618   1.93950
 Alpha virt. eigenvalues --    1.94678   1.95622   1.96314   1.96423   1.97467
 Alpha virt. eigenvalues --    1.97812   1.98139   1.98840   1.99474   2.00334
 Alpha virt. eigenvalues --    2.00993   2.01229   2.01380   2.02108   2.02621
 Alpha virt. eigenvalues --    2.02804   2.03324   2.03840   2.04225   2.04328
 Alpha virt. eigenvalues --    2.04600   2.05010   2.05691   2.06079   2.07071
 Alpha virt. eigenvalues --    2.07803   2.08694   2.09635   2.09750   2.10299
 Alpha virt. eigenvalues --    2.10707   2.11805   2.12287   2.14068   2.14418
 Alpha virt. eigenvalues --    2.15138   2.15315   2.16163   2.17055   2.17246
 Alpha virt. eigenvalues --    2.18091   2.18302   2.18688   2.19194   2.20023
 Alpha virt. eigenvalues --    2.20459   2.20637   2.21352   2.21617   2.23110
 Alpha virt. eigenvalues --    2.23781   2.24011   2.24501   2.25503   2.26487
 Alpha virt. eigenvalues --    2.28141   2.29840   2.29981   2.30391   2.31554
 Alpha virt. eigenvalues --    2.31809   2.32205   2.32810   2.34069   2.34599
 Alpha virt. eigenvalues --    2.35051   2.36176   2.36650   2.36821   2.37246
 Alpha virt. eigenvalues --    2.37864   2.38180   2.38926   2.39277   2.39536
 Alpha virt. eigenvalues --    2.40286   2.40603   2.41762   2.42101   2.42883
 Alpha virt. eigenvalues --    2.44206   2.45151   2.45473   2.46191   2.47008
 Alpha virt. eigenvalues --    2.47825   2.48281   2.50113   2.50397   2.51004
 Alpha virt. eigenvalues --    2.53971   2.55376   2.57013   2.57264   2.58933
 Alpha virt. eigenvalues --    2.60600   2.60787   2.61553   2.63957   2.64644
 Alpha virt. eigenvalues --    2.66153   2.66382   2.66863   2.66992   2.67398
 Alpha virt. eigenvalues --    2.68140   2.68335   2.70657   2.71223   2.71608
 Alpha virt. eigenvalues --    2.71683   2.71813   2.72113   2.72262   2.72297
 Alpha virt. eigenvalues --    2.72790   2.72950   2.74148   2.74698   2.74883
 Alpha virt. eigenvalues --    2.75759   2.79297   2.79363   2.79671   2.80042
 Alpha virt. eigenvalues --    2.80274   2.80349   2.81301   2.81837   2.82288
 Alpha virt. eigenvalues --    2.84516   2.85053   2.86136   2.86488   2.87208
 Alpha virt. eigenvalues --    2.87530   2.89804   2.91536   2.92560   2.94591
 Alpha virt. eigenvalues --    2.96059   2.97699   2.98412   2.99415   3.01385
 Alpha virt. eigenvalues --    3.02990   3.05322   3.06152   3.06457   3.07469
 Alpha virt. eigenvalues --    3.07847   3.09545   3.09859   3.11859   3.12589
 Alpha virt. eigenvalues --    3.16024   3.16410   3.19523   3.19739   3.20634
 Alpha virt. eigenvalues --    3.21078   3.21184   3.21638   3.23553   3.25730
 Alpha virt. eigenvalues --    3.26524   3.31035   3.31214   3.32968   3.34042
 Alpha virt. eigenvalues --    3.37873   3.39764   3.42090   3.49695   3.50778
 Alpha virt. eigenvalues --    3.50971   3.51425   3.55243   3.59437   3.62097
 Alpha virt. eigenvalues --    3.62625   3.63335   3.63944   3.65254   3.66157
 Alpha virt. eigenvalues --    3.66879   3.67483   3.70551   3.71943   3.72735
 Alpha virt. eigenvalues --    3.76624   3.76757   3.77830   3.84136   3.84376
 Alpha virt. eigenvalues --    3.90317   3.95592   3.96510   4.01658   4.02310
 Alpha virt. eigenvalues --    4.15186
          Condensed to atoms (all electrons):
 Mulliken charges:
               1
     1  Mn  -0.648770
     2  C    0.327566
     3  O   -0.074595
     4  C    0.325343
     5  O   -0.075181
     6  C    0.304487
     7  N   -0.207440
     8  C   -0.038093
     9  C    0.040272
    10  C    0.092571
    11  H    0.060180
    12  H    0.053982
    13  N    0.106838
    14  C   -0.009513
    15  C   -0.162491
    16  C    0.024543
    17  C   -0.024245
    18  C    0.025332
    19  H    0.048824
    20  H    0.073478
    21  N   -0.208587
    22  C   -0.038096
    23  C    0.044208
    24  H    0.060565
    25  C    0.100187
    26  H    0.082479
    27  C    0.101542
    28  H    0.081926
    29  H    0.053515
    30  O   -0.095312
    31  C   -0.178684
    32  C   -0.084112
    33  C   -0.046133
    34  C    0.063465
    35  C   -0.066441
    36  C   -0.018395
    37  C   -0.018425
    38  C    0.016121
    39  C    0.082234
    40  H    0.035183
    41  H    0.043097
    42  H    0.031461
    43  C    0.083619
    44  C    0.015202
    45  C   -0.018065
    46  C   -0.018954
    47  C   -0.063692
    48  C    0.058232
    49  H    0.031315
    50  H    0.043115
    51  H    0.034956
    52  C   -0.048550
    53  H    0.053525
    54  C    0.092916
    55  H    0.061723
    56  H    0.062876
    57  C   -0.004107
    58  C   -0.022671
    59  H    0.055076
    60  H    0.056475
    61  Br  -0.822839
    62  H    0.020371
    63  H    0.044587
 Sum of Mulliken charges =  -0.00000
 Mulliken charges with hydrogens summed into heavy atoms:
               1
     1  Mn  -0.648770
     2  C    0.327566
     3  O   -0.074595
     4  C    0.325343
     5  O   -0.075181
     6  C    0.304487
     7  N   -0.207440
     8  C    0.022087
     9  C    0.094253
    10  C    0.155446
    13  N    0.106838
    14  C   -0.009513
    15  C   -0.162491
    16  C    0.073367
    17  C    0.029270
    18  C    0.098810
    21  N   -0.208587
    22  C    0.022470
    23  C    0.097734
    25  C    0.182665
    27  C    0.183468
    30  O   -0.095312
    31  C   -0.134097
    32  C   -0.063741
    33  C   -0.046133
    34  C    0.063465
    35  C   -0.031257
    36  C    0.024702
    37  C    0.013037
    38  C    0.016121
    39  C    0.082234
    43  C    0.083619
    44  C    0.015202
    45  C    0.013250
    46  C    0.024161
    47  C   -0.028735
    48  C    0.058232
    52  C   -0.048550
    54  C    0.154639
    57  C    0.052368
    58  C    0.032405
    61  Br  -0.822839
 Electronic spatial extent (au):  <R**2>=          24380.7954
 Charge=             -0.0000 electrons
 Dipole moment (field-independent basis, Debye):
    X=            -13.7391    Y=             11.5120    Z=             12.2087  Tot=             21.6873
 Quadrupole moment (field-independent basis, Debye-Ang):
   XX=           -267.3450   YY=           -240.0827   ZZ=           -246.6636
   XY=             40.2794   XZ=             39.4508   YZ=            -20.1482
 Traceless Quadrupole moment (field-independent basis, Debye-Ang):
   XX=            -15.9812   YY=             11.2810   ZZ=              4.7002
   XY=             40.2794   XZ=             39.4508   YZ=            -20.1482
 Octapole moment (field-independent basis, Debye-Ang**2):
  XXX=           -247.5365  YYY=             67.3319  ZZZ=             69.2284  XYY=             16.4745
  XXY=            180.3463  XXZ=            173.2618  XZZ=             42.2147  YZZ=             16.4525
  YYZ=             27.2146  XYZ=             86.8915
 Hexadecapole moment (field-independent basis, Debye-Ang**3):
 XXXX=         -18038.9478 YYYY=          -6515.8513 ZZZZ=          -5876.4791 XXXY=            856.6022
 XXXZ=            799.6865 YYYX=             52.5185 YYYZ=            -36.9759 ZZZX=             80.1339
 ZZZY=             79.4098 XXYY=          -4110.1315 XXZZ=          -4163.7100 YYZZ=          -1766.2532
 XXYZ=           -166.1265 YYXZ=            207.8724 ZZXY=            220.0666
 N-N= 6.026883759947D+03 E-N=-2.488322189116D+04  KE= 5.399463652150D+03
 PrsmSu:  requested number of processors reduced to:  11 ShMem   1 Linda.
 D1PCM: PCM CHGder 1st derivatives, ID1Alg=3 FixD1E=F DoIter=F DoCFld=F I1PDM=0.
 CoulSu:  requested number of processors reduced to:  10 ShMem   1 Linda.
 CoulSu:  requested number of processors reduced to:  10 ShMem   1 Linda.
[...]
   D60        0.00763  -0.00004   0.00000   0.00094   0.00128   0.00891
   D61       -0.00360   0.00024   0.00000  -0.00022  -0.00028  -0.00389
   D62        3.13111   0.00011   0.00000  -0.00130  -0.00140   3.12971
   D63       -0.01701  -0.00033   0.00000  -0.00443  -0.00482  -0.02184
   D64        3.12843  -0.00013   0.00000  -0.00269  -0.00306   3.12537
   D65       -3.14050  -0.00046   0.00000  -0.00209  -0.00201   3.14068
   D66        0.00494  -0.00026   0.00000  -0.00034  -0.00025   0.00470
   D67        3.13899  -0.00004   0.00000   0.00024   0.00025   3.13924
   D68        0.00083  -0.00009   0.00000   0.00051   0.00051   0.00134
   D69        0.00435   0.00010   0.00000   0.00133   0.00136   0.00571
   D70       -3.13381   0.00004   0.00000   0.00159   0.00162  -3.13219
   D71       -1.12660   0.00062   0.00000   0.00303   0.00348  -1.12311
   D72        2.00803   0.00048   0.00000   0.00195   0.00237   2.01040
   D73        0.00054  -0.00004   0.00000  -0.00023  -0.00020   0.00034
   D74        3.14022   0.00005   0.00000   0.00003   0.00003   3.14026
   D75       -3.13760  -0.00010   0.00000   0.00003   0.00006  -3.13754
   D76        0.00208   0.00000   0.00000   0.00029   0.00029   0.00238
   D77       -0.75194  -0.00010   0.00000  -0.01064  -0.01063  -0.76257
   D78       -0.05162  -0.00005   0.00000  -0.00092  -0.00107  -0.05269
   D79        2.38578  -0.00030   0.00000  -0.01238  -0.01239   2.37339
   D80        3.08610  -0.00025   0.00000  -0.00266  -0.00283   3.08327
   D81       -0.00355   0.00013   0.00000   0.00061   0.00055  -0.00299
   D82        3.13855   0.00003   0.00000  -0.00020  -0.00023   3.13832
   D83       -3.14135   0.00032   0.00000   0.00231   0.00226  -3.13909
   D84        0.00074   0.00023   0.00000   0.00150   0.00148   0.00222
   D85        1.65831  -0.00021   0.00000  -0.03814  -0.03796   1.62035
   D86        3.00734  -0.00057   0.00000  -0.00443  -0.00438   3.00296
   D87       -0.12089  -0.00006   0.00000  -0.00174  -0.00170  -0.12259
   D88       -0.04954  -0.00008   0.00000  -0.00067  -0.00065  -0.05019
   D89        3.10541   0.00043   0.00000   0.00202   0.00203   3.10744
   D90       -2.94985   0.00004   0.00000   0.00278   0.00270  -2.94714
   D91        0.19508   0.00015   0.00000   0.00305   0.00303   0.19811
   D92        0.10628  -0.00045   0.00000  -0.00105  -0.00110   0.10518
   D93       -3.03198  -0.00034   0.00000  -0.00078  -0.00078  -3.03276
   D94       -3.11226  -0.00067   0.00000  -0.00095  -0.00097  -3.11323
   D95        0.03027  -0.00028   0.00000  -0.00065  -0.00066   0.02961
   D96        0.05261  -0.00054   0.00000  -0.00105  -0.00109   0.05153
   D97       -3.08804  -0.00015   0.00000  -0.00075  -0.00078  -3.08882
   D98       -2.52555   0.00198   0.00000   0.03284   0.03287  -2.49268
   D99        0.59271   0.00185   0.00000   0.03289   0.03294   0.62566
   D100      -0.02835   0.00060   0.00000   0.00173   0.00175  -0.02660
   D101       3.09935   0.00007   0.00000  -0.00108  -0.00105   3.09830
   D102       3.13593   0.00074   0.00000   0.00170   0.00171   3.13764
   D103      -0.01956   0.00020   0.00000  -0.00110  -0.00109  -0.02065
   D104       3.12239   0.00014   0.00000  -0.00217  -0.00220   3.12019
   D105      -0.00199   0.00006   0.00000  -0.00050  -0.00050  -0.00248
   D106      -0.02014  -0.00025   0.00000  -0.00247  -0.00251  -0.02265
   D107       3.13867  -0.00033   0.00000  -0.00080  -0.00080   3.13787
   D108      -3.00006  -0.00020   0.00000  -0.00043  -0.00048  -3.00053
   D109       0.13391   0.00002   0.00000   0.00050   0.00048   0.13438
   D110      -3.13301   0.00015   0.00000  -0.00022  -0.00023  -3.13324
   D111       0.00096   0.00037   0.00000   0.00071   0.00072   0.00168
   D112       0.18338  -0.00093   0.00000  -0.00165  -0.00167   0.18171
   D113      -2.96584  -0.00071   0.00000  -0.00072  -0.00071  -2.96656
   D114      -0.11814  -0.00019   0.00000  -0.00080  -0.00077  -0.11891
   D115       3.01249  -0.00010   0.00000  -0.00022  -0.00019   3.01230
   D116       0.01462  -0.00050   0.00000  -0.00095  -0.00095   0.01367
   D117      -3.13793  -0.00040   0.00000  -0.00038  -0.00037  -3.13830
   D118       2.98152   0.00055   0.00000   0.00042   0.00042   2.98194
   D119      -0.17104   0.00064   0.00000   0.00100   0.00100  -0.17004
   D120       1.39594  -0.00062   0.00000  -0.01625  -0.01615   1.37978
   D121      -1.62080  -0.00067   0.00000  -0.01604  -0.01598  -1.63678
   D122       3.12596  -0.00006   0.00000   0.00039   0.00045   3.12641
   D123      -0.03396  -0.00014   0.00000  -0.00049  -0.00044  -0.03440
   D124      -0.04682   0.00081   0.00000   0.00277   0.00281  -0.04402
   D125       3.07644   0.00073   0.00000   0.00189   0.00192   3.07836
   D126      -3.05248  -0.00048   0.00000   0.00036   0.00038  -3.05210
   D127       0.07079  -0.00056   0.00000  -0.00052  -0.00051   0.07027
   D128       0.04984  -0.00002   0.00000   0.00020   0.00016   0.04999
   D129      -3.10916  -0.00005   0.00000  -0.00055  -0.00059  -3.10975
   D130      -3.06046  -0.00090   0.00000  -0.00221  -0.00223  -3.06269
   D131       0.06373  -0.00093   0.00000  -0.00295  -0.00298   0.06075
   D132      -0.05475   0.00039   0.00000   0.00023   0.00023  -0.05452
   D133       3.06945   0.00036   0.00000  -0.00052  -0.00053   3.06892
   D134       0.78370   0.00091   0.00000   0.00095   0.00103   0.78472
   D135      -2.40345   0.00115   0.00000  -0.00019  -0.00015  -2.40359
   D136      -2.32711   0.00067   0.00000   0.00089   0.00099  -2.32612
   D137       0.76893   0.00092   0.00000  -0.00025  -0.00018   0.76875
   D138       3.08340   0.00002   0.00000  -0.00208  -0.00213   3.08127
   D139      -0.01438   0.00013   0.00000  -0.00112  -0.00115  -0.01553
   D140      -0.01358  -0.00024   0.00000  -0.00099  -0.00101  -0.01459
   D141      -3.11136  -0.00014   0.00000  -0.00003  -0.00003  -3.11139
   D142       0.10922  -0.00001   0.00000   0.00289   0.00296   0.11218
   D143      -3.02465  -0.00024   0.00000   0.00193   0.00198  -3.02267
   D144      -3.07757   0.00025   0.00000   0.00175   0.00179  -3.07578
   D145       0.07174   0.00002   0.00000   0.00080   0.00082   0.07256
   D146      -0.03787   0.00016   0.00000   0.00020   0.00021  -0.03766
   D147       3.13585   0.00013   0.00000   0.00069   0.00070   3.13655
   D148       3.06027   0.00005   0.00000  -0.00075  -0.00076   3.05950
   D149      -0.04919   0.00002   0.00000  -0.00027  -0.00028  -0.04947
   D150       0.02913  -0.00000   0.00000   0.00060   0.00061   0.02975
   D151      -3.10643  -0.00007   0.00000   0.00025   0.00024  -3.10618
   D152       3.13815   0.00003   0.00000   0.00011   0.00012   3.13828
   D153       0.00259  -0.00004   0.00000  -0.00024  -0.00025   0.00234
   D154      -3.13001  -0.00027   0.00000  -0.00160  -0.00163  -3.13164
   D155       0.03010  -0.00021   0.00000  -0.00073  -0.00075   0.02935
   D156       0.00569  -0.00020   0.00000  -0.00126  -0.00127   0.00442
   D157      -3.11739  -0.00014   0.00000  -0.00038  -0.00039  -3.11778
   D158      -0.05492   0.00003   0.00000  -0.00002  -0.00004  -0.05495
   D159       3.07939   0.00024   0.00000   0.00087   0.00087   3.08026
   D160       3.06881  -0.00004   0.00000  -0.00089  -0.00090   3.06790
   D161      -0.08007   0.00017   0.00000   0.00000   0.00000  -0.08007
   D162       0.02384   0.00021   0.00000   0.00051   0.00051   0.02435
   D163      -3.10080   0.00024   0.00000   0.00125   0.00126  -3.09955
   D164      -3.10728   0.00013   0.00000  -0.00004  -0.00004  -3.10733
   D165       0.05126   0.00015   0.00000   0.00070   0.00070   0.05196
   D166       3.10567  -0.00029   0.00000  -0.00178  -0.00181   3.10386
   D167      -0.07399  -0.00045   0.00000  -0.00409  -0.00413  -0.07812
   D168      -0.04702  -0.00018   0.00000  -0.00118  -0.00120  -0.04821
   D169       3.05651  -0.00034   0.00000  -0.00349  -0.00352   3.05299
   D170       3.13983   0.00003   0.00000   0.00113   0.00115   3.14099
   D171       0.00738  -0.00001   0.00000   0.00084   0.00085   0.00823
   D172      -0.01934   0.00002   0.00000   0.00039   0.00040  -0.01894
   D173       3.13139  -0.00003   0.00000   0.00010   0.00010   3.13149
   D174      -0.01756  -0.00013   0.00000  -0.00098  -0.00100  -0.01856
   D175      -3.13151  -0.00004   0.00000  -0.00022  -0.00023  -3.13174
   D176       3.11469  -0.00008   0.00000  -0.00069  -0.00069   3.11400
   D177       0.00074   0.00001   0.00000   0.00007   0.00008   0.00081
   D178       0.02203   0.00013   0.00000   0.00051   0.00050   0.02253
   D179      -3.08247   0.00021   0.00000   0.00146   0.00148  -3.08100
   D180       3.13635   0.00004   0.00000  -0.00024  -0.00025   3.13610
   D181       0.03185   0.00012   0.00000   0.00071   0.00072   0.03258
   D182       0.01087   0.00008   0.00000   0.00065   0.00067   0.01155
   D183      -3.09297   0.00026   0.00000   0.00294   0.00298  -3.08999
   D184       3.11514  -0.00000   0.00000  -0.00031  -0.00030   3.11484
   D185       0.01130   0.00018   0.00000   0.00199   0.00201   0.01330
   D186       2.34760   0.00011   0.00000   0.00475   0.00471   2.35232
   D187      -0.81173   0.00019   0.00000   0.00303   0.00295  -0.80877
   D188      -0.83239  -0.00007   0.00000   0.00243   0.00237  -0.83002
   D189       2.29147   0.00001   0.00000   0.00070   0.00061   2.29208
   D190      -0.08052   0.00035   0.00000   0.00153   0.00157  -0.07895
   D191       3.05766   0.00024   0.00000   0.00125   0.00123   3.05889
   D192       3.07780   0.00030   0.00000   0.00318   0.00326   3.08106
   D193      -0.06721   0.00019   0.00000   0.00290   0.00292  -0.06429
   D194       0.00085   0.00003   0.00000  -0.00034  -0.00034   0.00051
   D195      -3.14125   0.00012   0.00000   0.00048   0.00044  -3.14081
   D196      -3.13884  -0.00007   0.00000  -0.00060  -0.00057  -3.13941
   D197       0.00225   0.00002   0.00000   0.00022   0.00021   0.00246
         Item               Value     Threshold  Converged?
 Maximum Force            0.060663     0.000450     NO 
 RMS     Force            0.003456     0.000300     NO 
 Maximum Displacement     0.296684     0.001800     NO 
 RMS     Displacement     0.051112     0.001200     NO 
 Predicted change in Energy=-1.529281D-02
 GradGradGradGradGradGradGradGradGradGradGradGradGradGradGradGradGradGrad

 Stoichiometry    C34H21BrMnN3O3
 Framework group  C1[X(C34H21BrMnN3O3)]
 Deg. of freedom   183
 Full point group                 C1      NOp   1
 Largest Abelian subgroup         C1      NOp   1
 Largest concise Abelian subgroup C1      NOp   1
                         Standard orientation:                         
 ---------------------------------------------------------------------
 Center     Atomic      Atomic             Coordinates (Angstroms)
 Number     Number       Type             X           Y           Z
 ---------------------------------------------------------------------
      1         25           0        1.468024   -1.505963   -0.799808
      2          6           0        2.174257   -3.024071   -0.028147
      3          8           0        2.399321   -4.021711    0.489176
      4          6           0        2.257091   -1.613516   -2.465748
      5          8           0        2.578494   -1.673618   -3.564023
      6          6           0        0.224533   -2.570502   -1.457817
      7          7           0        0.454238    0.295980   -1.729974
      8          6           0        0.604262    2.578412   -2.439535
      9          6           0       -0.776274    2.719439   -2.349472
     10          6           0       -0.873332    0.414631   -1.736876
     11          1           0        1.241787    3.418822   -2.714789
     12          1           0       -1.250151    3.685101   -2.541476
     13          7           0        2.266060    0.302647    0.269075
     14          6           0        2.666637    1.269013    0.751510
     15          6           0        3.195560    2.463716    1.342894
     16          6           0        2.317316    3.388020    1.927936
     17          6           0        2.823250    4.557501    2.484687
     18          6           0        4.575514    2.709273    1.309963
     19          1           0        1.245188    3.186921    1.935376
     20          1           0        5.270950    1.998673    0.858787
     21          7           0        0.372255   -1.388858    1.143008
     22          6           0        0.409267   -0.992042    3.497851
     23          6           0       -0.979831   -0.880868    3.522395
     24          1           0        1.007403   -0.874772    4.401234
     25          6           0        1.177956    1.356807   -2.115482
     26          1           0        2.262194    1.227195   -2.138028
     27          6           0        1.042456   -1.230322    2.290232
     28          1           0        2.131739   -1.282429    2.231650
     29          1           0        2.142235    5.280124    2.938902
     30          8           0       -0.532911   -3.319175   -1.907468
     31          6           0       -3.157941    0.471815    0.248354
     32          6           0       -5.898138    0.350148    0.077034
     33          6           0       -1.552919    1.611688   -1.999482
     34          6           0       -3.036532    1.677903   -1.942632
     35          6           0       -3.731316    2.292172   -2.954722
     36          6           0       -5.156971    2.315634   -2.978202
     37          6           0       -5.873903    1.682794   -2.005790
     38          6           0       -5.200632    1.017851   -0.929187
     39          6           0       -3.773497    1.053603   -0.862529
     40          1           0       -3.185181    2.740980   -3.788126
     41          1           0       -5.666426    2.820724   -3.801754
     42          1           0       -6.966310    1.666870   -2.032556
     43          6           0       -3.844041   -0.273016    1.211743
     44          6           0       -5.270393   -0.320625    1.127374
     45          6           0       -6.013488   -1.030702    2.126395
     46          6           0       -5.364727   -1.675382    3.138233
     47          6           0       -3.939998   -1.670122    3.202273
     48          6           0       -3.180377   -1.002586    2.274803
     49          1           0       -7.103784   -1.050901    2.054916
     50          1           0       -5.928221   -2.224815    3.895495
     51          1           0       -3.445431   -2.242524    3.991100
     52          6           0       -1.697112   -1.075169    2.337596
     53          1           0       -1.504108   -0.644375    4.451407
     54          6           0       -0.957484   -1.370340    1.186812
     55          1           0       -1.479856   -1.605806    0.258750
     56          1           0       -1.442520   -0.491664   -1.526274
     57          6           0        4.195816    4.804844    2.457019
     58          6           0        5.066788    3.884497    1.872577
     59          1           0        6.140311    4.082993    1.854436
     60          1           0        4.590593    5.724993    2.894012
     61         35           0        4.354293   -1.556608   -0.694891
     62          1           0       -7.000386    0.377226    0.054023
     63          1           0       -2.078757    0.641708    0.390691
 ---------------------------------------------------------------------
 Rotational constants (GHZ):           0.0970564           0.0523529           0.0499075
 Basis read from rwf:  (5D, 7F)
 There are   802 symmetry adapted cartesian basis functions of A   symmetry.
 There are   751 symmetry adapted basis functions of A   symmetry.
   751 basis functions,  1339 primitive gaussians,   802 cartesian basis functions
   165 alpha electrons      165 beta electrons
       nuclear repulsion energy      6055.9469508082 Hartrees.
 NAtoms=   63 NActive=   63 NUniq=   63 SFac= 1.00D+00 NAtFMM=   60 NAOKFM=T Big=T
 Integral buffers will be    131072 words long.
 Raffenetti 2 integral format.
 Two-electron integral symmetry is turned on.
 Nuclear repulsion after empirical dispersion term =     6055.8825811599 Hartrees.
 ------------------------------------------------------------------------------
 Polarizable Continuum Model (PCM)
 =================================
 Model                : PCM.
 Atomic radii         : UFF (Universal Force Field).
 Polarization charges : Total charges.
 Charge compensation  : None.
 Solution method      : On-the-fly selection.
 Cavity type          : Scaled VdW (van der Waals Surface) (Alpha=1.100).
 Cavity algorithm     : GePol (No added spheres)
                        Default sphere list used, NSphG=   63.
                        Lebedev-Laikov grids with approx.  5.0 points / Ang**2.
                        Smoothing algorithm: York/Karplus (Gamma=1.0000).
                        Polarization charges: spherical gaussians, with
                                              point-specific exponents (IZeta= 3).
                        Self-potential: point-specific (ISelfS= 7).
                        Self-field    : sphere-specific E.n sum rule (ISelfD= 2).
 1st derivatives      : Analytical E(r).r(x)/FMM algorithm (CHGder, D1EAlg=3).
                        Cavity 1st derivative terms included.
 Solvent              : TetraHydroFuran, Eps=   7.425700 Eps(inf)=   1.974025
 ------------------------------------------------------------------------------
 One-electron integrals computed using PRISM.
 PrsmSu:  requested number of processors reduced to:  11 ShMem   1 Linda.
 NBasis=   751 RedAO= T EigKep=  2.22D-04  NBF=   751
 NBsUse=   751 1.00D-06 EigRej= -1.00D+00 NBFU=   751
 Initial guess from the checkpoint file:  "checkpoint.chk"
 B after Tr=     0.000000    0.000000    0.000000
         Rot=    0.999418    0.032944    0.004025   -0.007867 Ang=   3.91 deg.
 ExpMin= 3.93D-02 ExpMax= 2.77D+05 ExpMxC= 1.70D+04 IAcc=3 IRadAn=         5 AccDes= 0.00D+00
 Harris functional with IExCor= 4639 and IRadAn=       5 diagonalized for initial guess.
 HarFok:  IExCor= 4639 AccDes= 0.00D+00 IRadAn=         5 IDoV= 1 UseB2=F ITyADJ=14
 ICtDFT=  3500011 ScaDFX=  1.000000  1.000000  1.000000  1.000000
 FoFCou: FMM=F IPFlag=           0 FMFlag=      100000 FMFlg1=        2001
         NFxFlg=           0 DoJE=T BraDBF=F KetDBF=T FulRan=T
         wScrn=  0.000000 ICntrl=       500 IOpCl=  0 I1Cent=   200000004 NGrid=           0
         NMat0=    1 NMatS0=      1 NMatT0=    0 NMatD0=    1 NMtDS0=    0 NMtDT0=    0
 Petite list used in FoFCou.
 Requested convergence on RMS density matrix=1.00D-08 within 128 cycles.
 Requested convergence on MAX density matrix=1.00D-06.
 Requested convergence on             energy=1.00D-06.
 No special actions if energy rises.
 CoulSu:  requested number of processors reduced to:  10 ShMem   1 Linda.
 Inv3:  Mode=1 IEnd=    66976875.
 Iteration    1 A*A^-1 deviation from unit magnitude is 3.33D-15 for   2800.
 Iteration    1 A*A^-1 deviation from orthogonality  is 2.21D-15 for   2937   2787.
 Iteration    1 A^-1*A deviation from unit magnitude is 3.11D-15 for   3287.
 Iteration    1 A^-1*A deviation from orthogonality  is 9.38D-14 for   2332   2238.
 CoulSu:  requested number of processors reduced to:  10 ShMem   1 Linda.
 CoulSu:  requested number of processors reduced to:  10 ShMem   1 Linda.
 Error on total polarization charges =  0.01991
 SCF Done:  E(RwB97XD) =  -5421.41820200     A.U. after   16 cycles
            NFock= 16  Conv=0.90D-08     -V/T= 2.0041
 PrsmSu:  requested number of processors reduced to:  11 ShMem   1 Linda.
 D1PCM: PCM CHGder 1st derivatives, ID1Alg=3 FixD1E=F DoIter=F DoCFld=F I1PDM=0.
 CoulSu:  requested number of processors reduced to:  10 ShMem   1 Linda.
 CoulSu:  requested number of processors reduced to:  10 ShMem   1 Linda.
 Calling FoFJK, ICntrl=      2127 FMM=T ISym2X=0 I1Cent= 0 IOpClX= 0 NMat=1 NMatS=1 NMatT=0.
