 Entering Gaussian System, Link 0=g16
 Initial command:
 /home1/apps/gaussian/16rA.03/g16/l1.exe "/tmp/Gau-256149.inp" -scrdir="/tmp/"
 Entering Link 1 = /home1/apps/gaussian/16rA.03/g16/l1.exe PID=    256150.
  
 Copyright (c) 1988,1990,1992,1993,1995,1998,2003,2009,2016,
            Gaussian, Inc.  All Rights Reserved.
  
 This is part of the Gaussian(R) 16 program.  It is based on
 the Gaussian(R) 09 system (copyright 2009, Gaussian, Inc.),
 the Gaussian(R) 03 system (copyright 2003, Gaussian, Inc.),
 the Gaussian(R) 98 system (copyright 1998, Gaussian, Inc.),
 the Gaussian(R) 94 system (copyright 1995, Gaussian, Inc.),
 the Gaussian 92(TM) system (copyright 1992, Gaussian, Inc.),
 the Gaussian 90(TM) system (copyright 1990, Gaussian, Inc.),
 the Gaussian 88(TM) system (copyright 1988, Gaussian, Inc.),
 the Gaussian 86(TM) system (copyright 1986, Carnegie Mellon
 University), and the Gaussian 82(TM) system (copyright 1983,
 Carnegie Mellon University). Gaussian is a federally registered
 trademark of Gaussian, Inc.
  
 This software contains proprietary and confidential information,
 including trade secrets, belonging to Gaussian, Inc.
  
 This software is provided under written license and may be
 used, copied, transmitted, or stored only in accord with that
 written license.
  
 The following legend is applicable only to US Government
 contracts under FAR:
  
                    RESTRICTED RIGHTS LEGEND
  
 Use, reproduction and disclosure by the US Government is
 subject to restrictions as set forth in subparagraphs (a)
 and (c) of the Commercial Computer Software - Restricted
 Rights clause in FAR 52.227-19.
  
 Gaussian, Inc.
 340 Quinnipiac St., Bldg. 40, Wallingford CT 06492
  
  
 ---------------------------------------------------------------
 Warning -- This program may not be used in any manner that
 competes with the business of Gaussian, Inc. or will provide
 assistance to any competitor of Gaussian, Inc.  The licensee
 of this program is prohibited from giving any competitor of
 Gaussian, Inc. access to this program.  By using this program,
 the user acknowledges that Gaussian, Inc. is engaged in the
 business of creating and licensing software in the field of
 computational chemistry and represents and warrants to the
 licensee that it is not a competitor of Gaussian, Inc. and that
 it will not use this program in any manner prohibited above.
 ---------------------------------------------------------------
  

 Cite this work as:
 Gaussian 16, Revision A.03,
 M. J. Frisch, G. W. Trucks, H. B. Schlegel, G. E. Scuseria, 
 M. A. Robb, J. R. Cheeseman, G. Scalmani, V. Barone, 
 G. A. Petersson, H. Nakatsuji, X. Li, M. Caricato, A. V. Marenich, 
 J. Bloino, B. G. Janesko, R. Gomperts, B. Mennucci, H. P. Hratchian, 
 J. V. Ortiz, A. F. Izmaylov, J. L. Sonnenberg, D. Williams-Young, 
 F. Ding, F. Lipparini, F. Egidi, J. Goings, B. Peng, A. Petrone, 
 T. Henderson, D. Ranasinghe, V. G. Zakrzewski, J. Gao, N. Rega, 
 G. Zheng, W. Liang, M. Hada, M. Ehara, K. Toyota, R. Fukuda, 
 J. Hasegawa, M. Ishida, T. Nakajima, Y. Honda, O. Kitao, H. Nakai, 
 T. Vreven, K. Throssell, J. A. Montgomery, Jr., J. E. Peralta, 
 F. Ogliaro, M. J. Bearpark, J. J. Heyd, E. N. Brothers, K. N. Kudin, 
 V. N. Staroverov, T. A. Keith, R. Kobayashi, J. Normand, 
 K. Raghavachari, A. P. Rendell, J. C. Burant, S. S. Iyengar, 
 J. Tomasi, M. Cossi, J. M. Millam, M. Klene, C. Adamo, R. Cammi, 
 J. W. Ochterski, R. L. Martin, K. Morokuma, O. Farkas, 
 J. B. Foresman, and D. J. Fox, Gaussian, Inc., Wallingford CT, 2016.
 
 ******************************************
 Gaussian 16:  ES64L-G16RevA.03 25-Dec-2016
                17-Feb-2023 
 ******************************************
 %Chk=checkpoint.chk
 %NProcShared=12
 Will use up to   12 processors via shared memory.
 -----------------------------------------------------
 #wB97XD Gen Opt=(QST3) SCRF=(Solvent=TetraHydroFuran)
 -----------------------------------------------------
 1/5=1,18=20,26=3,27=203,38=1/1,3;
 2/9=110,12=2,17=6,18=5,40=1/2;
 3/5=7,11=2,25=1,30=1,70=2201,71=1,72=20,74=-58/1,2,3;
 4//1;
 5/5=2,38=5,53=20/2;
 6/7=2,8=2,9=2,10=2,28=1/1;
 7//1,2,3,16;
 1/5=1,18=20,26=3,27=203/3(2);
 2/9=110/2;
 99//99;
 2/9=110/2;
 3/5=7,6=1,11=2,25=1,30=1,70=2205,71=1,72=20,74=-58,82=7/1,2,3;
 4/5=5,16=3,69=1/1;
 5/5=2,38=5,53=20/2;
 7//1,2,3,16;
 1/5=1,18=20,26=3,27=203/3(-5);
 2/9=110/2;
 6/7=2,8=2,9=2,10=2,19=2,28=1/1;
 99/9=1/99;
 ------------------------------------
 Anthracene Transition State Reactant
 ------------------------------------
 Symbolic Z-matrix:
 Charge =  0 Multiplicity = 1
 Mn                   -1.0194   -0.13282  -1.30041 
 C                    -1.95084   1.09527  -2.29845 
 O                    -2.50101   1.87539  -2.92239 
 C                    -1.94096  -1.55093  -2.01671 
 O                    -2.47772  -2.45176  -2.46467 
 C                     0.20025  -0.27236  -2.6431 
 N                     0.04927  -1.53221  -0.03083 
 C                     0.07866  -3.04556   1.8282 
 C                     1.46702  -3.1228    1.77993 
 C                     1.37634  -1.67638  -0.11513 
 H                    -0.49205  -3.5931    2.57846 
 H                     2.01871  -3.71611   2.51212 
 N                    -2.37065   0.02942   0.19031 
 C                    -3.16697   0.13023   1.0198 
 C                    -4.10539   0.2658    2.09209 
 C                    -3.6202    0.43566   3.39952 
 C                    -4.52704   0.57079   4.44399 
 C                    -5.48203   0.23058   1.82486 
 H                    -2.54534   0.46071   3.58681 
 H                    -5.82775   0.09615   0.79488 
 N                     0.05018   1.50245  -0.35369 
 C                     0.08073   3.37421   1.14383 
 C                     1.47006   3.42805   1.09346 
 H                    -0.49002   4.07266   1.75603 
 C                    -0.58809  -2.23239   0.92237 
 H                    -1.67251  -2.14107   0.96102 
 C                    -0.58735   2.39419   0.42298 
 H                    -1.67305   2.32336   0.46813 
 H                    -4.16287   0.70328   5.46409 
 O                     0.94147  -0.36186  -3.51126 
 C                     3.71034   0.05692   0.59661 
 C                     6.44285   0.00195   0.07986 
 C                     2.14993  -2.41932   0.78562 
 C                     3.63318  -2.42875   0.67238 
 C                     4.33237  -3.60918   0.65808 
 C                     5.74721  -3.62943   0.48325 
 C                     6.44286  -2.47015   0.28898 
 C                     5.76733  -1.20725   0.29051 
 C                     4.35206  -1.18133   0.52939 
 H                     3.79554  -4.55679   0.74485 
 H                     6.26618  -4.58974   0.47691 
 H                     7.52231  -2.48926   0.12265 
 C                     4.35394   1.25516   0.28141 
 C                     5.76945   1.23001   0.04342 
 C                     6.44775   2.46555  -0.21061 
 C                     5.75436   3.64152  -0.25402 
 C                     4.33929   3.65908  -0.08147 
 C                     3.63726   2.50702   0.16895 
 H                     7.52743   2.44868  -0.37582 
 H                     6.27529   4.58008  -0.45221 
 H                     3.80437   4.6056   -0.18931 
 C                     2.15352   2.52607   0.2752 
 H                     2.02229   4.15802   1.68899 
 C                     1.37923   1.61496  -0.45427 
 H                     1.87683   0.94259  -1.1522 
 H                     1.87309  -1.17143  -0.94303 
 C                    -5.89955   0.53687   4.18594 
 C                    -6.37363   0.36773   2.88435 
 H                    -7.44706   0.34214   2.68994 
 H                    -6.60706   0.64379   5.01079 
 Br                   -5.87537  -0.28615  -1.89241 
 H                     7.52454  -0.01473  -0.07653 
 H                     2.66679   0.08836   0.89635 
 
 Add virtual bond connecting atoms Br61       and H20        Dist= 5.13D+00.
 -----------------------------------
 Anthracene Transition State Product
 -----------------------------------
 Symbolic Z-matrix:
 Charge =  0 Multiplicity = 1
 Mn                   -1.44286   0.16026  -2.01412 
 C                    -2.20443   1.54882  -2.90891 
 O                    -2.68366   2.42731  -3.46349 
 C                    -2.21304  -1.07612  -3.10367 
 O                    -2.69804  -1.85971  -3.78172 
 C                    -0.01408   0.23546  -3.09485 
 N                    -0.60049  -1.44099  -0.81185 
 C                    -0.82342  -3.27125   0.71581 
 C                     0.55737  -3.36677   0.85296 
 C                     0.7252   -1.5913   -0.72767 
 H                    -1.48955  -3.94449   1.25661 
 H                     1.00241  -4.09964   1.52935 
 N                     0.0775   -0.17244   2.4041 
 C                    -1.05369  -0.19765   2.64732 
 C                    -2.45976  -0.23136   2.94445 
 C                    -3.12645  -1.4621    3.01383 
 C                    -4.49389  -1.48788   3.26678 
 C                    -3.15853   0.96659   3.1448 
 H                    -2.5722   -2.38909   2.86463 
 H                    -2.62937   1.91849   3.09601 
 N                    -0.59083   1.56154  -0.58857 
 C                    -0.80429   3.1413    1.19825 
 C                     0.5769    3.20654   1.34817 
 H                    -1.46646   3.7285    1.83564 
 C                    -1.3638   -2.28301  -0.09733 
 H                    -2.44255  -2.14076  -0.17604 
 C                    -1.34964   2.291     0.24463 
 H                    -2.42913   2.16919   0.14486 
 H                    -5.01736  -2.44419   3.31559 
 O                     0.86165   0.2873   -3.83871 
 C                     2.91235  -0.04746   0.58557 
 C                     5.69235  -0.04273   0.41158 
 C                     1.36924  -2.49754   0.12252 
 C                     2.85402  -2.5063    0.21569 
 C                     3.56205  -3.67493   0.08887 
 C                     4.98786  -3.68132   0.09599 
 C                     5.69088  -2.51399   0.19056 
 C                     5.00769  -1.26191   0.32192 
 C                     3.57322  -1.26107   0.38259 
 H                     3.02896  -4.61681  -0.06081 
 H                     5.51371  -4.63251  -0.00729 
 H                     6.783    -2.51728   0.16154 
 C                     3.58071   1.17889   0.56648 
 C                     5.01522   1.18024   0.5065 
 C                     5.70587   2.43375   0.56536 
 C                     5.00976   3.60611   0.64834 
 C                     3.58394   3.60941   0.64 
 C                     2.86897   2.43926   0.58848 
 H                     6.79801   2.43509   0.53708 
 H                     5.54131   4.55882   0.69009 
 H                     3.05653   4.56629   0.63458 
 C                     1.38429   2.45343   0.49431 
 H                     1.02578   3.82526   2.12808 
 C                     0.73572   1.68987  -0.48314 
 H                     1.34033   1.15471  -1.214 
 H                     1.33286  -0.9558   -1.37019 
 C                    -5.19354  -0.29487   3.45284 
 C                    -4.52569   0.92909   3.39758 
 H                    -5.07398   1.86057   3.54798 
 H                    -6.26798  -0.31941   3.64516 
 Br                   -3.72263   0.07153  -0.71897 
 H                     1.84487  -0.05936   0.78995 
 H                     6.78538  -0.04496   0.39399 
 
 Add virtual bond connecting atoms N7         and Mn1        Dist= 4.11D+00.
 Add virtual bond connecting atoms N21        and Mn1        Dist= 4.11D+00.
 Add virtual bond connecting atoms H11        and H19        Dist= 4.70D+00.
 Add virtual bond connecting atoms H24        and H20        Dist= 4.71D+00.
 Add virtual bond connecting atoms H62        and N13        Dist= 4.53D+00.
 -----------------------------------------
 Anthracene Transition State Initial Guess
 -----------------------------------------
 Symbolic Z-matrix:
 Charge =  0 Multiplicity = 1
 Mn                   -1.07255  -0.19914  -2.13895 
 C                    -1.82671   1.01887  -3.28478 
 O                    -2.1514    1.78575  -4.07031 
 C                    -1.80046  -1.61849  -3.04528 
 O                    -2.11218  -2.52464  -3.6721 
 C                     0.29084  -0.27833  -3.26205 
 N                    -0.2074   -1.69853  -0.87624 
 C                    -0.56765  -3.42643   0.74341 
 C                     0.7712   -3.38049   1.12341 
 C                     1.09452  -1.74201  -0.58022 
 H                    -1.27018  -4.1069    1.22985 
 H                     1.1378   -4.00935   1.93919 
 N                    -2.06533  -0.01951   0.10271 
 C                    -2.43007   0.11809   1.19064 
 C                    -2.91279   0.31274   2.53188 
 C                    -2.00619   0.47817   3.58585 
 C                    -2.48927   0.67172   4.87854 
 C                    -4.29303   0.33835   2.76685 
 H                    -0.93501   0.45639   3.38423 
 H                    -4.98249   0.20916   1.93007 
 N                    -0.22373   1.48506  -1.13834 
 C                    -0.59996   3.4411    0.19252 
 C                     0.74185   3.47681   0.56208 
 H                    -1.31152   4.17535   0.57359 
 C                    -1.01974  -2.56064  -0.24185 
 H                    -2.07669  -2.53462  -0.51925 
 C                    -1.04358   2.42759  -0.64427 
 H                    -2.10065   2.34452  -0.90916 
 H                    -1.79043   0.80527   5.70557 
 O                     1.14135  -0.32609  -4.03983 
 C                     3.09549   0.0607    0.76015 
 C                     5.86229   0.09766   1.05971 
 C                     1.64322  -2.51994   0.44898 
 C                     3.09445  -2.43988   0.78266 
 C                     3.82199  -3.58953   0.96395 
 C                     5.22581  -3.55668   1.22037 
 C                     5.89776  -2.36978   1.24877 
 C                     5.19578  -1.1339    1.05786 
 C                     3.77106  -1.15888   0.87261 
 H                     3.32648  -4.56009   0.8736 
 H                     5.76119  -4.49892   1.36188 
 H                     6.97939  -2.33979   1.40891 
 C                     3.76324   1.28566   0.65446 
 C                     5.18819   1.30422   0.83482 
 C                     5.88151   2.55907   0.79251 
 C                     5.20038   3.71643   0.55326 
 C                     3.79444   3.69462   0.31068 
 C                     3.07523   2.52618   0.34727 
 H                     6.96402   2.5662    0.94719 
 H                     5.73009   4.67166   0.51575 
 H                     3.29111   4.63009   0.05168 
 C                     1.62105   2.53463   0.02228 
 H                     1.10351   4.22889   1.2688 
 C                     1.07727   1.59347  -0.86223 
 H                     1.74094   0.89254  -1.3676 
 H                     1.75357  -1.12315  -1.19094 
 C                    -3.86203   0.69654   5.1174 
 C                    -4.76129   0.52951   4.06513 
 H                    -5.83458   0.54889   4.25805 
 H                    -4.23653   0.84632   6.13517 
 Br                   -4.10867  -0.2081   -2.10175 
 H                     6.94383   0.11649   1.2246 
 H                     2.00765   0.05654   0.74502 
 

 GradGradGradGradGradGradGradGradGradGradGradGradGradGradGradGradGradGrad
 Berny optimization.
 Initialization pass.
                           ----------------------------
                           !    Initial Parameters    !
                           ! (Angstroms and Degrees)  !
 --------------------------                            --------------------------
 ! Name  Definition         TS        Reactant Product Derivative Info.         !
 --------------------------------------------------------------------------------
 ! R1    R(1,2)             1.8345    1.8363    1.819  estimate D2E/DX2         !
 ! R2    R(1,4)             1.8346    1.8367    1.819  estimate D2E/DX2         !
 ! R3    R(1,6)             1.7682    1.8193    1.7931 estimate D2E/DX2         !
 ! R4    R(1,7)             2.1427    2.1708    2.1723 estimate D2E/DX2         !
 ! R5    R(1,13)            2.4582    2.0185    4.6843 estimate D2E/DX2         !
 ! R6    R(1,21)            2.135     2.1713    2.173  estimate D2E/DX2         !
 ! R7    R(1,61)            3.0364    4.8943    2.6235 estimate D2E/DX2         !
 ! R8    R(2,3)             1.1448    1.1404    1.1441 estimate D2E/DX2         !
 ! R9    R(4,5)             1.1451    1.1403    1.1441 estimate D2E/DX2         !
 ! R10   R(6,30)            1.1535    1.145     1.1502 estimate D2E/DX2         !
 ! R11   R(7,10)            1.3359    1.3375    1.3368 estimate D2E/DX2         !
 ! R12   R(7,25)            1.3437    1.3435    1.3425 estimate D2E/DX2         !
 ! R13   R(8,9)             1.3925    1.3913    1.3909 estimate D2E/DX2         !
 ! R14   R(8,11)            1.0923    1.0901    1.0906 estimate D2E/DX2         !
 ! R15   R(8,25)            1.3873    1.3879    1.3892 estimate D2E/DX2         !
 ! R16   R(9,12)            1.0933    1.092     1.0921 estimate D2E/DX2         !
 ! R17   R(9,33)            1.3985    1.3964    1.3958 estimate D2E/DX2         !
 ! R18   R(10,33)           1.402     1.4006    1.3996 estimate D2E/DX2         !
 ! R19   R(10,56)           1.091     1.0896    1.089  estimate D2E/DX2         !
 ! R20   R(11,19)           5.0574    4.6547    2.4854 estimate D2E/DX2         !
 ! R21   R(13,14)           1.1557    1.1543    1.1573 estimate D2E/DX2         !
 ! R22   R(13,62)           9.0798    9.8989    2.3962 estimate D2E/DX2         !
 ! R23   R(14,15)           1.4387    1.4314    1.4375 estimate D2E/DX2         !
 ! R24   R(15,16)           1.4001    1.4049    1.4014 estimate D2E/DX2         !
 ! R25   R(15,18)           1.4003    1.4028    1.4013 estimate D2E/DX2         !
 ! R26   R(16,17)           1.3935    1.3898    1.3909 estimate D2E/DX2         !
 ! R27   R(16,19)           1.0902    1.0913    1.0903 estimate D2E/DX2         !
 ! R28   R(17,29)           1.091     1.0912    1.0913 estimate D2E/DX2         !
 ! R29   R(17,57)           1.3936    1.397     1.3955 estimate D2E/DX2         !
 ! R30   R(18,20)           1.0919    1.0947    1.0902 estimate D2E/DX2         !
 ! R31   R(18,58)           1.3933    1.3915    1.3908 estimate D2E/DX2         !
 ! R32   R(20,24)           5.572     6.7252    2.4934 estimate D2E/DX2         !
 ! R33   R(20,61)           4.1465    2.7148    4.3773 estimate D2E/DX2         !
 ! R34   R(21,27)           1.3434    1.3435    1.3424 estimate D2E/DX2         !
 ! R35   R(21,54)           1.3344    1.3376    1.3369 estimate D2E/DX2         !
 ! R36   R(22,23)           1.3922    1.3913    1.3908 estimate D2E/DX2         !
 ! R37   R(22,24)           1.0912    1.0901    1.0907 estimate D2E/DX2         !
 ! R38   R(22,27)           1.3872    1.3879    1.3892 estimate D2E/DX2         !
 ! R39   R(23,52)           1.3972    1.3965    1.3958 estimate D2E/DX2         !
 ! R40   R(23,53)           1.0936    1.092     1.092  estimate D2E/DX2         !
 ! R41   R(25,26)           1.0931    1.0889    1.0909 estimate D2E/DX2         !
 ! R42   R(27,28)           1.0929    1.0889    1.0909 estimate D2E/DX2         !
 ! R43   R(31,39)           1.3987    1.3963    1.3967 estimate D2E/DX2         !
 ! R44   R(31,43)           1.3991    1.3962    1.3968 estimate D2E/DX2         !
 ! R45   R(31,62)           3.8767    3.8738    1.0869 estimate D2E/DX2         !
 ! R46   R(31,63)           1.088     1.0862    3.8778 estimate D2E/DX2         !
 ! R47   R(32,38)           1.4004    1.401     1.4011 estimate D2E/DX2         !
 ! R48   R(32,44)           1.4003    1.401     1.4011 estimate D2E/DX2         !
 ! R49   R(32,62)           1.0942    1.0931    3.8661 estimate D2E/DX2         !
 ! R50   R(32,63)           3.8677    3.8643    1.0932 estimate D2E/DX2         !
 ! R51   R(33,34)           1.4912    1.4876    1.4877 estimate D2E/DX2         !
 ! R52   R(34,35)           1.3725    1.372     1.3723 estimate D2E/DX2         !
 ! R53   R(34,39)           1.4515    1.4468    1.4477 estimate D2E/DX2         !
 ! R54   R(35,36)           1.4274    1.4257    1.4258 estimate D2E/DX2         !
 ! R55   R(35,40)           1.0935    1.0926    1.0926 estimate D2E/DX2         !
 ! R56   R(36,37)           1.3642    1.3659    1.366  estimate D2E/DX2         !
 ! R57   R(36,41)           1.0929    1.0916    1.0918 estimate D2E/DX2         !
 ! R58   R(37,38)           1.4341    1.4322    1.4324 estimate D2E/DX2         !
 ! R59   R(37,42)           1.0938    1.0924    1.0925 estimate D2E/DX2         !
 ! R60   R(38,39)           1.4369    1.4355    1.4358 estimate D2E/DX2         !
 ! R61   R(43,44)           1.4364    1.4356    1.4358 estimate D2E/DX2         !
 ! R62   R(43,48)           1.4514    1.4469    1.4476 estimate D2E/DX2         !
 ! R63   R(44,45)           1.4343    1.4322    1.4324 estimate D2E/DX2         !
 ! R64   R(45,46)           1.3641    1.3659    1.366  estimate D2E/DX2         !
 ! R65   R(45,49)           1.0935    1.0924    1.0925 estimate D2E/DX2         !
 ! R66   R(46,47)           1.4269    1.4257    1.4258 estimate D2E/DX2         !
 ! R67   R(46,50)           1.0929    1.0916    1.0918 estimate D2E/DX2         !
 ! R68   R(47,48)           1.3725    1.3722    1.3723 estimate D2E/DX2         !
 ! R69   R(47,51)           1.0934    1.0926    1.0926 estimate D2E/DX2         !
 ! R70   R(48,52)           1.4901    1.4877    1.4877 estimate D2E/DX2         !
 ! R71   R(52,54)           1.4014    1.4006    1.3997 estimate D2E/DX2         !
 ! R72   R(54,55)           1.0896    1.0894    1.0891 estimate D2E/DX2         !
 ! R73   R(57,58)           1.3942    1.3955    1.3954 estimate D2E/DX2         !
 ! R74   R(57,60)           1.0948    1.092     1.0918 estimate D2E/DX2         !
 ! R75   R(58,59)           1.0907    1.0912    1.0913 estimate D2E/DX2         !
 ! A1    A(2,1,4)          92.4063   92.8602   92.6906 estimate D2E/DX2         !
 ! A2    A(2,1,6)          87.1337   89.4398   90.2928 estimate D2E/DX2         !
 ! A3    L(2,1,7,4,-1)    177.24    181.5632  182.3854 estimate D2E/DX2         !
 ! A4    L(2,1,7,4,-2)    179.0686  182.4131  183.4865 estimate D2E/DX2         !
 ! A5    A(2,1,13)        110.7959   90.4629  130.8496 estimate D2E/DX2         !
 ! A6    A(2,1,21)         86.125    89.035    89.6911 estimate D2E/DX2         !
 ! A7    A(2,1,61)         66.3303   56.7659   84.5395 estimate D2E/DX2         !
 ! A8    A(4,1,6)          87.5637   89.3883   90.279  estimate D2E/DX2         !
 ! A9    A(4,1,7)          84.8336   88.703    89.6949 estimate D2E/DX2         !
 ! A10   A(4,1,13)        110.2909   90.8132  130.8505 estimate D2E/DX2         !
 ! A11   L(4,1,21,2,-1)   178.5314  181.8953  182.3816 estimate D2E/DX2         !
 ! A12   L(4,1,21,2,-2)   180.8461  177.8035  176.5025 estimate D2E/DX2         !
 ! A13   A(4,1,61)         66.8611   55.3068   84.5361 estimate D2E/DX2         !
 ! A14   A(6,1,7)          91.813    92.9897   93.1816 estimate D2E/DX2         !
 ! A15   L(6,1,13,2,-1)   197.9295  179.9027  221.1424 estimate D2E/DX2         !
 ! A16   L(6,1,13,2,-2)   200.2208  180.197   245.2912 estimate D2E/DX2         !
 ! A17   A(6,1,21)         91.5163   92.827    93.2059 estimate D2E/DX2         !
 ! A18   L(6,1,61,2,-1)   153.464   146.2057  174.8323 estimate D2E/DX2         !
 ! A19   L(6,1,61,2,-2)   150.8317  133.7926  174.5395 estimate D2E/DX2         !
 ! A20   A(7,1,13)         71.1439   87.1023   45.5557 estimate D2E/DX2         !
 ! A21   A(7,1,21)         96.6207   89.3121   87.7196 estimate D2E/DX2         !
 ! A22   A(7,1,61)        113.2316  122.615    92.2245 estimate D2E/DX2         !
 ! A23   A(13,1,21)        71.0675   86.9744   45.554  estimate D2E/DX2         !
 ! A24   A(21,1,61)       113.2117  124.4079   92.2164 estimate D2E/DX2         !
 ! A25   L(1,2,3,18,-1)   187.1824  181.2299  179.5621 estimate D2E/DX2         !
 ! A26   L(1,2,3,22,-1)   180.5802  179.0518  179.5279 estimate D2E/DX2         !
 ! A27   L(1,2,3,18,-2)   175.4667  178.8291  179.7608 estimate D2E/DX2         !
 ! A28   L(1,2,3,22,-2)   171.6356  178.5473  180.1171 estimate D2E/DX2         !
 ! A29   L(1,4,5,8,-1)    180.2244  178.9781  179.5473 estimate D2E/DX2         !
 ! A30   L(1,4,5,8,-2)    188.0324  181.8662  179.8672 estimate D2E/DX2         !
 ! A31   L(1,6,30,10,-1)  182.6451  181.4747  182.6714 estimate D2E/DX2         !
 ! A32   L(1,6,30,10,-2)  178.571   178.99    178.0594 estimate D2E/DX2         !
 ! A33   A(1,7,10)        123.1532  121.4044  120.1501 estimate D2E/DX2         !
 ! A34   A(1,7,25)        118.8877  121.1552  122.4403 estimate D2E/DX2         !
 ! A35   A(10,7,25)       117.6248  117.3369  117.3751 estimate D2E/DX2         !
 ! A36   A(9,8,11)        121.1573  121.2244  121.0019 estimate D2E/DX2         !
 ! A37   A(9,8,25)        119.1128  119.2911  119.5213 estimate D2E/DX2         !
 ! A38   A(11,8,25)       119.6986  119.4687  119.4588 estimate D2E/DX2         !
 ! A39   A(8,9,12)        120.4666  120.7321  120.7784 estimate D2E/DX2         !
 ! A40   A(8,9,33)        119.2234  118.9955  118.8861 estimate D2E/DX2         !
 ! A41   A(12,9,33)       120.31    120.2701  120.331  estimate D2E/DX2         !
 ! A42   A(7,10,33)       124.2064  124.3771  124.5675 estimate D2E/DX2         !
 ! A43   A(7,10,56)       116.5009  116.7619  116.7806 estimate D2E/DX2         !
 ! A44   A(33,10,56)      119.2926  118.8603  118.6518 estimate D2E/DX2         !
 ! A45   A(8,11,19)        65.4801   86.7094  101.5699 estimate D2E/DX2         !
 ! A46   L(1,13,14,8,-1)  180.0857  181.4217  143.4264 estimate D2E/DX2         !
 ! A47   L(1,13,14,8,-2)  174.0351  180.9146  272.8095 estimate D2E/DX2         !
 ! A48   A(14,13,62)      101.2477  135.1856  149.7131 estimate D2E/DX2         !
 ! A49   L(13,14,15,11,-1)  181.2287  178.6485  179.8378 estimate D2E/DX2       !
 ! A50   L(13,14,15,1,-1)  180.4282  179.3423  179.8053 estimate D2E/DX2        !
 ! A51   L(13,14,15,11,-2)  180.9852  177.655  180.1544 estimate D2E/DX2        !
 ! A52   L(13,14,15,1,-2)  157.3464  323.0409  179.8888 estimate D2E/DX2        !
 ! A53   A(14,15,16)      120.0355  118.8297  119.745  estimate D2E/DX2         !
 ! A54   A(14,15,18)      119.3154  119.8879  119.8197 estimate D2E/DX2         !
 ! A55   A(16,15,18)      120.6488  121.2822  120.4296 estimate D2E/DX2         !
 ! A56   A(15,16,17)      119.3585  119.0657  119.537  estimate D2E/DX2         !
 ! A57   A(15,16,19)      119.6469  120.1746  119.8713 estimate D2E/DX2         !
 ! A58   A(17,16,19)      120.9945  120.7597  120.591  estimate D2E/DX2         !
 ! A59   A(16,17,29)      119.8785  119.7748  119.7337 estimate D2E/DX2         !
 ! A60   A(16,17,57)      120.1953  119.9927  120.0872 estimate D2E/DX2         !
 ! A61   A(29,17,57)      119.9262  120.2326  120.1787 estimate D2E/DX2         !
 ! A62   A(15,18,20)      119.4467  119.4873  119.8693 estimate D2E/DX2         !
 ! A63   A(15,18,58)      119.348   118.7694  119.546  estimate D2E/DX2         !
 ! A64   A(20,18,58)      121.2052  121.7433  120.5838 estimate D2E/DX2         !
 ! A65   A(11,19,16)       91.8165  112.1661  147.3575 estimate D2E/DX2         !
 ! A66   A(18,20,24)       71.7203   62.7598  151.9875 estimate D2E/DX2         !
 ! A67   A(18,20,61)      128.609   162.5838   63.2149 estimate D2E/DX2         !
 ! A68   A(1,21,27)       118.8947  121.2128  122.409  estimate D2E/DX2         !
 ! A69   A(1,21,54)       123.2771  121.3339  120.1792 estimate D2E/DX2         !
 ! A70   A(27,21,54)      117.5117  117.3326  117.3719 estimate D2E/DX2         !
 ! A71   A(23,22,24)      121.2339  121.2226  120.9754 estimate D2E/DX2         !
 ! A72   A(23,22,27)      119.1495  119.2873  119.5087 estimate D2E/DX2         !
 ! A73   A(24,22,27)      119.5883  119.4755  119.497  estimate D2E/DX2         !
 ! A74   A(22,23,52)      119.1194  119.0084  118.8945 estimate D2E/DX2         !
 ! A75   A(22,23,53)      120.5257  120.7383  120.7806 estimate D2E/DX2         !
 ! A76   A(52,23,53)      120.3543  120.2517  120.3201 estimate D2E/DX2         !
 ! A77   A(20,24,22)       92.0444   87.5038  100.821  estimate D2E/DX2         !
 ! A78   A(7,25,8)        122.5936  122.7164  122.4501 estimate D2E/DX2         !
 ! A79   A(7,25,26)       116.711   116.9941  116.2352 estimate D2E/DX2         !
 ! A80   A(8,25,26)       120.6763  120.2893  121.3081 estimate D2E/DX2         !
 ! A81   A(21,27,22)      122.6367  122.7187  122.4637 estimate D2E/DX2         !
 ! A82   A(21,27,28)      116.6036  116.996   116.2248 estimate D2E/DX2         !
 ! A83   A(22,27,28)      120.7343  120.2851  121.3045 estimate D2E/DX2         !
 ! A84   A(39,31,43)      122.6117  122.5723  122.3093 estimate D2E/DX2         !
 ! A85   A(39,31,62)       61.5398   61.4914  118.8492 estimate D2E/DX2         !
 ! A86   A(39,31,63)      118.7334  118.7182   61.3666 estimate D2E/DX2         !
 ! A87   A(43,31,62)       61.4895   61.4953  118.8238 estimate D2E/DX2         !
 ! A88   A(43,31,63)      118.6525  118.7067   61.3697 estimate D2E/DX2         !
 ! A89   A(38,32,44)      121.9013  121.9166  121.8486 estimate D2E/DX2         !
 ! A90   A(38,32,62)      119.0642  119.0443   61.0678 estimate D2E/DX2         !
 ! A91   A(38,32,63)       61.0653   61.0778  119.0633 estimate D2E/DX2         !
 ! A92   A(44,32,62)      119.0261  119.0318   61.0645 estimate D2E/DX2         !
 ! A93   A(44,32,63)       61.0734   61.068   119.0833 estimate D2E/DX2         !
 ! A94   A(9,33,10)       116.8353  117.0675  116.9662 estimate D2E/DX2         !
 ! A95   A(9,33,34)       122.1362  122.5908  122.9607 estimate D2E/DX2         !
 ! A96   A(10,33,34)      121.0209  120.3387  120.073  estimate D2E/DX2         !
 ! A97   A(33,34,35)      120.0286  120.9546  120.9417 estimate D2E/DX2         !
 ! A98   A(33,34,39)      120.9898  119.8331  119.8661 estimate D2E/DX2         !
 ! A99   A(35,34,39)      118.9429  119.1791  119.1341 estimate D2E/DX2         !
 ! A100  A(34,35,36)      121.7188  121.2786  121.2856 estimate D2E/DX2         !
 ! A101  A(34,35,40)      119.4945  119.6689  119.674  estimate D2E/DX2         !
 ! A102  A(36,35,40)      118.7462  119.0134  118.9947 estimate D2E/DX2         !
 ! A103  A(35,36,37)      120.5425  120.7171  120.7422 estimate D2E/DX2         !
 ! A104  A(35,36,41)      119.024   119.0123  119.0173 estimate D2E/DX2         !
 ! A105  A(37,36,41)      120.4045  120.2457  120.2125 estimate D2E/DX2         !
 ! A106  A(36,37,38)      120.3914  120.5328  120.5232 estimate D2E/DX2         !
 ! A107  A(36,37,42)      120.9279  120.6705  120.6689 estimate D2E/DX2         !
 ! A108  A(38,37,42)      118.679   118.7953  118.8069 estimate D2E/DX2         !
 ! A109  A(32,38,37)      121.6518  122.24    122.2362 estimate D2E/DX2         !
 ! A110  A(32,38,39)      119.1681  118.9991  119.0121 estimate D2E/DX2         !
 ! A111  A(37,38,39)      119.1774  118.758   118.7457 estimate D2E/DX2         !
 ! A112  A(31,39,34)      122.6409  122.1059  121.9443 estimate D2E/DX2         !
 ! A113  A(31,39,38)      118.3007  118.4984  118.6455 estimate D2E/DX2         !
 ! A114  A(34,39,38)      119.0465  119.389   119.4053 estimate D2E/DX2         !
 ! A115  A(31,43,44)      118.3768  118.4837  118.6513 estimate D2E/DX2         !
 ! A116  A(31,43,48)      122.5512  122.1247  121.9344 estimate D2E/DX2         !
 ! A117  A(44,43,48)      119.0625  119.3848  119.4097 estimate D2E/DX2         !
 ! A118  A(32,44,43)      119.1164  119.0099  119.0034 estimate D2E/DX2         !
 ! A119  A(32,44,45)      121.7287  122.2187  122.2494 estimate D2E/DX2         !
 ! A120  A(43,44,45)      119.1522  118.7686  118.7409 estimate D2E/DX2         !
 ! A121  A(44,45,46)      120.4059  120.528   120.5213 estimate D2E/DX2         !
 ! A122  A(44,45,49)      118.6895  118.7904  118.817  estimate D2E/DX2         !
 ! A123  A(46,45,49)      120.9026  120.6802  120.6609 estimate D2E/DX2         !
 ! A124  A(45,46,47)      120.588   120.7068  120.7457 estimate D2E/DX2         !
 ! A125  A(45,46,50)      120.3698  120.2507  120.209  estimate D2E/DX2         !
 ! A126  A(47,46,50)      119.0182  119.0168  119.0169 estimate D2E/DX2         !
 ! A127  A(46,47,48)      121.6541  121.3037  121.2822 estimate D2E/DX2         !
 ! A128  A(46,47,51)      118.736   118.9924  118.9961 estimate D2E/DX2         !
 ! A129  A(48,47,51)      119.5666  119.663   119.6765 estimate D2E/DX2         !
 ! A130  A(43,48,47)      119.0031  119.1567  119.1323 estimate D2E/DX2         !
 ! A131  A(43,48,52)      120.9048  119.9705  119.8668 estimate D2E/DX2         !
 ! A132  A(47,48,52)      120.0486  120.8346  120.9443 estimate D2E/DX2         !
 ! A133  A(23,52,48)      122.2538  122.5636  122.9353 estimate D2E/DX2         !
 ! A134  A(23,52,54)      116.909   117.0493  116.97   estimate D2E/DX2         !
 ! A135  A(48,52,54)      120.8329  120.3865  120.0947 estimate D2E/DX2         !
 ! A136  A(21,54,52)      124.2971  124.391   124.5567 estimate D2E/DX2         !
 ! A137  A(21,54,55)      116.4641  116.7506  116.7927 estimate D2E/DX2         !
 ! A138  A(52,54,55)      119.2387  118.8579  118.6503 estimate D2E/DX2         !
 ! A139  A(17,57,58)      120.2555  120.597   120.3067 estimate D2E/DX2         !
 ! A140  A(17,57,60)      119.9164  119.6479  119.8457 estimate D2E/DX2         !
 ! A141  A(58,57,60)      119.828   119.7552  119.8473 estimate D2E/DX2         !
 ! A142  A(18,58,57)      120.1936  120.2931  120.0864 estimate D2E/DX2         !
 ! A143  A(18,58,59)      119.8661  119.4952  119.7296 estimate D2E/DX2         !
 ! A144  A(57,58,59)      119.9402  120.2117  120.1834 estimate D2E/DX2         !
 ! A145  A(13,62,31)        0.2192    8.5014  148.3802 estimate D2E/DX2         !
 ! D1    D(4,1,7,10)      128.6018  118.0929  116.3527 estimate D2E/DX2         !
 ! D2    D(4,1,7,25)      -58.2023  -65.7047  -65.8409 estimate D2E/DX2         !
 ! D3    D(6,1,7,10)       41.2135   28.7733   26.0902 estimate D2E/DX2         !
 ! D4    D(6,1,7,25)     -145.5907 -155.0243 -156.1034 estimate D2E/DX2         !
 ! D5    D(13,1,7,10)    -117.8933 -151.027   -86.5137 estimate D2E/DX2         !
 ! D6    D(13,1,7,25)      55.3025   25.1754   91.2927 estimate D2E/DX2         !
 ! D7    D(21,1,7,10)     -50.5244  -64.0218  -66.9962 estimate D2E/DX2         !
 ! D8    D(21,1,7,25)     122.6714  112.1806  110.8102 estimate D2E/DX2         !
 ! D9    D(61,1,7,10)    -169.315   164.4312 -159.1273 estimate D2E/DX2         !
 ! D10   D(61,1,7,25)       3.8808  -19.3665   18.679  estimate D2E/DX2         !
 ! D11   D(2,1,15,16)    -126.3738 -132.5668  117.3152 estimate D2E/DX2         !
 ! D12   D(2,1,15,18)      51.3277   46.8712   -7.0382 estimate D2E/DX2         !
 ! D13   D(4,1,15,16)     131.3091  134.5698    8.9434 estimate D2E/DX2         !
 ! D14   D(4,1,15,18)     -50.9894  -45.9921 -115.41   estimate D2E/DX2         !
 ! D15   D(7,1,15,16)      55.8268   45.9148  -62.8995 estimate D2E/DX2         !
 ! D16   D(7,1,15,18)    -126.4717 -134.6472  172.7471 estimate D2E/DX2         !
 ! D17   D(21,1,15,16)    -49.7594  -43.5417 -170.8879 estimate D2E/DX2         !
 ! D18   D(21,1,15,18)    127.9421  135.8964   64.7587 estimate D2E/DX2         !
 ! D19   D(2,1,21,27)      58.6567   64.9775   66.0092 estimate D2E/DX2         !
 ! D20   D(2,1,21,54)    -127.9715 -119.1227 -116.3481 estimate D2E/DX2         !
 ! D21   D(6,1,21,27)     145.6799  154.3689  156.2852 estimate D2E/DX2         !
 ! D22   D(6,1,21,54)     -40.9483  -29.7313  -26.0721 estimate D2E/DX2         !
 ! D23   D(7,1,21,27)    -122.3181 -112.6715 -110.6537 estimate D2E/DX2         !
 ! D24   D(7,1,21,54)      51.0537   63.2282   66.989  estimate D2E/DX2         !
 ! D25   D(13,1,21,27)    -54.8864  -25.5371  -91.1356 estimate D2E/DX2         !
 ! D26   D(13,1,21,54)    118.4854  150.3627   86.5071 estimate D2E/DX2         !
 ! D27   D(61,1,21,27)     -3.512    17.5031  -18.5141 estimate D2E/DX2         !
 ! D28   D(61,1,21,54)    169.8598 -166.5972  159.1286 estimate D2E/DX2         !
 ! D29   D(1,7,10,33)     165.8908  170.9989  173.1231 estimate D2E/DX2         !
 ! D30   D(1,7,10,56)     -14.0163   -8.6878   -6.7473 estimate D2E/DX2         !
 ! D31   D(25,7,10,33)     -7.3855   -5.3429   -4.7922 estimate D2E/DX2         !
 ! D32   D(25,7,10,56)    172.7074  174.9705  175.3374 estimate D2E/DX2         !
 ! D33   D(1,7,25,8)     -170.0421 -174.1697 -177.2166 estimate D2E/DX2         !
 ! D34   D(1,7,25,26)       8.3771    5.9781    1.8568 estimate D2E/DX2         !
 ! D35   D(10,7,25,8)       3.5301    2.1817    0.6474 estimate D2E/DX2         !
 ! D36   D(10,7,25,26)   -178.0507 -177.6705  179.7208 estimate D2E/DX2         !
 ! D37   D(11,8,9,12)      -1.7031   -1.589    -1.8553 estimate D2E/DX2         !
 ! D38   D(11,8,9,33)     178.288   178.9627  178.9172 estimate D2E/DX2         !
 ! D39   D(25,8,9,12)     176.256   176.9571  176.5923 estimate D2E/DX2         !
 ! D40   D(25,8,9,33)      -3.7528   -2.4911   -2.6352 estimate D2E/DX2         !
 ! D41   D(9,8,11,19)      90.3668  128.0158  111.5414 estimate D2E/DX2         !
 ! D42   D(25,8,11,19)    -87.5805  -50.5278  -66.9071 estimate D2E/DX2         !
 ! D43   D(9,8,25,7)        1.9034    1.6357    2.9883 estimate D2E/DX2         !
 ! D44   D(9,8,25,26)    -176.4547 -178.5168 -176.0389 estimate D2E/DX2         !
 ! D45   D(11,8,25,7)     179.8928 -179.7923 -178.5399 estimate D2E/DX2         !
 ! D46   D(11,8,25,26)      1.5347    0.0552    2.4328 estimate D2E/DX2         !
 ! D47   D(8,9,33,10)       0.3261   -0.3199   -1.0696 estimate D2E/DX2         !
 ! D48   D(8,9,33,34)    -178.6748  179.0584  179.0325 estimate D2E/DX2         !
 ! D49   D(12,9,33,10)   -179.6828 -179.7707  179.6995 estimate D2E/DX2         !
 ! D50   D(12,9,33,34)      1.3163   -0.3925   -0.1985 estimate D2E/DX2         !
 ! D51   D(7,10,33,9)       5.4785    4.4392    5.015  estimate D2E/DX2         !
 ! D52   D(7,10,33,34)   -175.5086 -174.9538 -175.0839 estimate D2E/DX2         !
 ! D53   D(56,10,33,9)   -174.6168 -175.8802 -175.1168 estimate D2E/DX2         !
 ! D54   D(56,10,33,34)     4.396     4.7267    4.7842 estimate D2E/DX2         !
 ! D55   D(8,11,19,16)    141.8359  117.7639   53.3578 estimate D2E/DX2         !
 ! D56   D(62,13,15,16)     1.1133    0.4233   89.7844 estimate D2E/DX2         !
 ! D57   D(62,13,15,18)  -179.5864 -179.8178  -89.249  estimate D2E/DX2         !
 ! D58   D(14,13,62,31)    -1.6595    1.3918 -178.9573 estimate D2E/DX2         !
 ! D59   D(14,15,16,17)   179.7148  179.857  -178.3155 estimate D2E/DX2         !
 ! D60   D(14,15,16,19)    -0.132    -0.1263    1.3773 estimate D2E/DX2         !
 ! D61   D(18,15,16,17)    -0.0939    0.0027    0.8132 estimate D2E/DX2         !
 ! D62   D(18,15,16,19)  -179.9406 -179.9806 -179.494  estimate D2E/DX2         !
 ! D63   D(14,15,18,20)     0.0745    0.1848   -1.3207 estimate D2E/DX2         !
 ! D64   D(14,15,18,58)  -179.8715 -179.8524  178.3373 estimate D2E/DX2         !
 ! D65   D(16,15,18,20)   179.8846 -179.9624  179.5513 estimate D2E/DX2         !
 ! D66   D(16,15,18,58)    -0.0615    0.0003   -0.7907 estimate D2E/DX2         !
 ! D67   D(15,16,17,29)  -179.772   179.998   179.6371 estimate D2E/DX2         !
 ! D68   D(15,16,17,57)     0.1609   -0.0077   -0.1502 estimate D2E/DX2         !
 ! D69   D(19,16,17,29)     0.0726   -0.0189   -0.0534 estimate D2E/DX2         !
 ! D70   D(19,16,17,57)  -179.9945  179.9755 -179.8408 estimate D2E/DX2         !
 ! D71   D(15,16,19,11)   -55.9879  -64.5372  -76.5178 estimate D2E/DX2         !
 ! D72   D(17,16,19,11)   124.168   115.4798  103.1717 estimate D2E/DX2         !
 ! D73   D(16,17,57,58)    -0.0729    0.0098   -0.5324 estimate D2E/DX2         !
 ! D74   D(16,17,57,60)   179.8418 -179.988   179.6298 estimate D2E/DX2         !
 ! D75   D(29,17,57,58)   179.8599 -179.9959  179.6812 estimate D2E/DX2         !
 ! D76   D(29,17,57,60)    -0.2254    0.0063   -0.1566 estimate D2E/DX2         !
 ! D77   D(15,18,20,24)   -50.7635  -39.6752   72.2844 estimate D2E/DX2         !
 ! D78   D(15,18,20,61)    -3.0929    2.2233   79.8547 estimate D2E/DX2         !
 ! D79   D(58,18,20,24)   129.1815  140.3632 -107.37   estimate D2E/DX2         !
 ! D80   D(58,18,20,61)   176.8522 -177.7383  -99.7997 estimate D2E/DX2         !
 ! D81   D(15,18,58,57)     0.1508    0.0017    0.1052 estimate D2E/DX2         !
 ! D82   D(15,18,58,59)  -179.8762  179.9964 -179.6257 estimate D2E/DX2         !
 ! D83   D(20,18,58,57)  -179.7943  179.9635  179.7607 estimate D2E/DX2         !
 ! D84   D(20,18,58,59)     0.1787   -0.0418    0.0298 estimate D2E/DX2         !
 ! D85   D(18,20,24,22)    86.7788  118.348   -46.9348 estimate D2E/DX2         !
 ! D86   D(1,21,27,22)    169.8051  173.7347  176.964  estimate D2E/DX2         !
 ! D87   D(1,21,27,28)     -8.3742   -6.4186   -2.0847 estimate D2E/DX2         !
 ! D88   D(54,21,27,22)    -3.9486   -2.3232   -0.7414 estimate D2E/DX2         !
 ! D89   D(54,21,27,28)   177.8721  177.5235 -179.79   estimate D2E/DX2         !
 ! D90   D(1,21,54,52)   -166.1898 -170.7064 -172.9049 estimate D2E/DX2         !
 ! D91   D(1,21,54,55)     13.6759    9.0522    6.903  estimate D2E/DX2         !
 ! D92   D(27,21,54,52)     7.2676    5.3464    4.8541 estimate D2E/DX2         !
 ! D93   D(27,21,54,55)  -172.8666 -174.895  -175.338  estimate D2E/DX2         !
 ! D94   D(24,22,23,52)  -178.4597 -178.8661 -178.9497 estimate D2E/DX2         !
 ! D95   D(24,22,23,53)     1.8111    1.5972    1.8437 estimate D2E/DX2         !
 ! D96   D(27,22,23,52)     3.4857    2.5283    2.6426 estimate D2E/DX2         !
 ! D97   D(27,22,23,53)  -176.2435 -177.0084 -176.5639 estimate D2E/DX2         !
 ! D98   D(23,22,24,20)  -131.8488 -167.1236 -114.2662 estimate D2E/DX2         !
 ! D99   D(27,22,24,20)    46.1974   11.4793   64.1416 estimate D2E/DX2         !
 ! D100  D(23,22,27,21)    -1.2886   -1.5128   -2.9271 estimate D2E/DX2         !
 ! D101  D(23,22,27,28)   176.8174  178.6454  176.0741 estimate D2E/DX2         !
 ! D102  D(24,22,27,21)  -179.3758  179.8569  178.6415 estimate D2E/DX2         !
 ! D103  D(24,22,27,28)    -1.2698    0.0151   -2.3573 estimate D2E/DX2         !
 ! D104  D(22,23,52,48)   178.7052 -179.5503 -179.0167 estimate D2E/DX2         !
 ! D105  D(22,23,52,54)    -0.5493    0.1582    1.0323 estimate D2E/DX2         !
 ! D106  D(53,23,52,48)    -1.5651   -0.0113    0.1935 estimate D2E/DX2         !
 ! D107  D(53,23,52,54)   179.1804  179.6972 -179.7574 estimate D2E/DX2         !
 ! D108  D(43,31,39,34)  -170.5922 -171.0588 -171.1073 estimate D2E/DX2         !
 ! D109  D(43,31,39,38)     8.1367    7.9929    8.0804 estimate D2E/DX2         !
 ! D110  D(62,31,39,34)  -178.1262 -178.5638   10.4416 estimate D2E/DX2         !
 ! D111  D(62,31,39,38)     0.6028    0.4878 -170.3707 estimate D2E/DX2         !
 ! D112  D(63,31,39,34)     8.8326    8.319  -178.7139 estimate D2E/DX2         !
 ! D113  D(63,31,39,38)  -172.4385 -172.6293    0.4738 estimate D2E/DX2         !
 ! D114  D(39,31,43,44)    -7.8959   -8.0368   -8.1047 estimate D2E/DX2         !
 ! D115  D(39,31,43,48)   170.9699  171.0122  171.1092 estimate D2E/DX2         !
 ! D116  D(62,31,43,44)    -0.3583   -0.532   170.3468 estimate D2E/DX2         !
 ! D117  D(62,31,43,48)   178.5074  178.517   -10.4393 estimate D2E/DX2         !
 ! D118  D(63,31,43,44)   172.6788  172.5853   -0.4984 estimate D2E/DX2         !
 ! D119  D(63,31,43,48)    -8.4554   -8.3657  178.7155 estimate D2E/DX2         !
 ! D120  D(39,31,62,13)    82.6228   86.7475   89.3766 estimate D2E/DX2         !
 ! D121  D(43,31,62,13)   -90.157   -86.0571  -89.1292 estimate D2E/DX2         !
 ! D122  D(44,32,38,37)   178.0913  178.0761  178.3863 estimate D2E/DX2         !
 ! D123  D(44,32,38,39)    -2.5046   -2.5547   -2.5202 estimate D2E/DX2         !
 ! D124  D(62,32,38,37)    -0.8419   -0.9271 -175.4289 estimate D2E/DX2         !
 ! D125  D(62,32,38,39)   178.5622  178.4421    3.6647 estimate D2E/DX2         !
 ! D126  D(63,32,38,37)  -176.2487 -176.3626   -0.8107 estimate D2E/DX2         !
 ! D127  D(63,32,38,39)     3.1555    3.0066  178.2828 estimate D2E/DX2         !
 ! D128  D(38,32,44,43)     2.7519    2.5098    2.496  estimate D2E/DX2         !
 ! D129  D(38,32,44,45)  -177.8505 -178.1172 -178.4259 estimate D2E/DX2         !
 ! D130  D(62,32,44,43)  -178.3145 -178.4869   -3.689  estimate D2E/DX2         !
 ! D131  D(62,32,44,45)     1.083     0.8861  175.3891 estimate D2E/DX2         !
 ! D132  D(63,32,44,43)    -2.9077   -3.052  -178.3071 estimate D2E/DX2         !
 ! D133  D(63,32,44,45)   176.4899  176.3211    0.771  estimate D2E/DX2         !
 ! D134  D(9,33,34,35)     45.3986   51.0888   50.1007 estimate D2E/DX2         !
 ! D135  D(9,33,34,39)   -136.8895 -131.0271 -132.6936 estimate D2E/DX2         !
 ! D136  D(10,33,34,35)  -133.5612 -129.5527 -129.7941 estimate D2E/DX2         !
 ! D137  D(10,33,34,39)    44.1507   48.3314   47.4115 estimate D2E/DX2         !
 ! D138  D(33,34,35,36)   176.9231  176.8502  176.1599 estimate D2E/DX2         !
 ! D139  D(33,34,35,40)    -0.7316   -0.8529   -1.356  estimate D2E/DX2         !
 ! D140  D(39,34,35,36)    -0.8355   -1.0475   -1.0659 estimate D2E/DX2         !
 ! D141  D(39,34,35,40)  -178.4902 -178.7507 -178.5818 estimate D2E/DX2         !
 ! D142  D(33,34,39,31)     5.1734    5.0696    6.0886 estimate D2E/DX2         !
 ! D143  D(33,34,39,38)  -173.5465 -173.9738 -173.0931 estimate D2E/DX2         !
 ! D144  D(35,34,39,31)  -177.0903 -177.0086 -176.6552 estimate D2E/DX2         !
 ! D145  D(35,34,39,38)     4.1899    3.9479    4.1631 estimate D2E/DX2         !
 ! D146  D(34,35,36,37)    -2.1931   -1.7539   -1.9335 estimate D2E/DX2         !
 ! D147  D(34,35,36,41)   179.7576 -179.946   179.9868 estimate D2E/DX2         !
 ! D148  D(40,35,36,37)   175.4786  175.9639  175.5989 estimate D2E/DX2         !
 ! D149  D(40,35,36,41)    -2.5707   -2.2281   -2.4808 estimate D2E/DX2         !
 ! D150  D(35,36,37,38)     1.7343    1.5673    1.7411 estimate D2E/DX2         !
 ! D151  D(35,36,37,42)  -177.7821 -177.994  -177.8964 estimate D2E/DX2         !
 ! D152  D(41,36,37,38)   179.7566  179.737   179.7978 estimate D2E/DX2         !
 ! D153  D(41,36,37,42)     0.2402    0.1757    0.1604 estimate D2E/DX2         !
 ! D154  D(36,37,38,32)  -178.9199 -179.2627 -179.5119 estimate D2E/DX2         !
 ! D155  D(36,37,38,39)     1.676     1.3667    1.3922 estimate D2E/DX2         !
 ! D156  D(42,37,38,32)     0.6072    0.3067    0.1322 estimate D2E/DX2         !
 ! D157  D(42,37,38,39)  -178.7968 -179.0639 -178.9637 estimate D2E/DX2         !
 ! D158  D(32,38,39,31)    -2.8084   -2.5673   -2.6519 estimate D2E/DX2         !
 ! D159  D(32,38,39,34)   175.9672  176.5107  176.5569 estimate D2E/DX2         !
 ! D160  D(37,38,39,31)   176.6106  176.824   176.4737 estimate D2E/DX2         !
 ! D161  D(37,38,39,34)    -4.6137   -4.0979   -4.3176 estimate D2E/DX2         !
 ! D162  D(31,43,44,32)     2.3183    2.6566    2.6995 estimate D2E/DX2         !
 ! D163  D(31,43,44,45)  -177.095  -176.7383 -176.4112 estimate D2E/DX2         !
 ! D164  D(48,43,44,32)  -176.5879 -176.4191 -176.5346 estimate D2E/DX2         !
 ! D165  D(48,43,44,45)     3.9988    4.186     4.3546 estimate D2E/DX2         !
 ! D166  D(31,43,48,47)   177.5693  176.9457  176.5563 estimate D2E/DX2         !
 ! D167  D(31,43,48,52)    -4.8285   -5.2827   -6.1537 estimate D2E/DX2         !
 ! D168  D(44,43,48,47)    -3.5724   -4.0136   -4.2356 estimate D2E/DX2         !
 ! D169  D(44,43,48,52)   174.0298  173.758   173.0544 estimate D2E/DX2         !
 ! D170  D(32,44,45,46)   179.0984  179.2214  179.5474 estimate D2E/DX2         !
 ! D171  D(32,44,45,49)    -0.3955   -0.3466   -0.1163 estimate D2E/DX2         !
 ! D172  D(43,44,45,46)    -1.5043   -1.4041   -1.3722 estimate D2E/DX2         !
 ! D173  D(43,44,45,49)   179.0018  179.0279  178.9641 estimate D2E/DX2         !
 ! D174  D(44,45,46,47)    -1.4638   -1.6024   -1.7832 estimate D2E/DX2         !
 ! D175  D(44,45,46,50)  -179.6662 -179.7387 -179.8274 estimate D2E/DX2         !
 ! D176  D(49,45,46,47)   178.0188  177.9574  177.8742 estimate D2E/DX2         !
 ! D177  D(49,45,46,50)    -0.1836   -0.1789   -0.1699 estimate D2E/DX2         !
 ! D178  D(45,46,47,48)     1.9252    1.8123    1.9391 estimate D2E/DX2         !
 ! D179  D(45,46,47,51)  -175.6714 -175.853  -175.6076 estimate D2E/DX2         !
 ! D180  D(50,46,47,48)  -179.8485  179.9713 -179.9938 estimate D2E/DX2         !
 ! D181  D(50,46,47,51)     2.555     2.306     2.4595 estimate D2E/DX2         !
 ! D182  D(46,47,48,43)     0.6504    1.0412    1.1177 estimate D2E/DX2         !
 ! D183  D(46,47,48,52)  -176.9729 -176.7106 -176.1422 estimate D2E/DX2         !
 ! D184  D(51,47,48,43)   178.2274  178.691   178.648  estimate D2E/DX2         !
 ! D185  D(51,47,48,52)     0.6041    0.9392    1.388  estimate D2E/DX2         !
 ! D186  D(43,48,52,23)   135.6392  131.8205  132.61   estimate D2E/DX2         !
 ! D187  D(43,48,52,54)   -45.1349  -47.8786  -47.4405 estimate D2E/DX2         !
 ! D188  D(47,48,52,23)   -46.7835  -50.4459  -50.15   estimate D2E/DX2         !
 ! D189  D(47,48,52,54)   132.4423  129.855   129.7995 estimate D2E/DX2         !
 ! D190  D(23,52,54,21)    -5.0512   -4.2914   -5.0121 estimate D2E/DX2         !
 ! D191  D(23,52,54,55)   175.0865  175.9547  175.1833 estimate D2E/DX2         !
 ! D192  D(48,52,54,21)   175.683   175.4238  175.0354 estimate D2E/DX2         !
 ! D193  D(48,52,54,55)    -4.1793   -4.3301   -4.7691 estimate D2E/DX2         !
 ! D194  D(17,57,58,18)    -0.0849   -0.0068    0.5552 estimate D2E/DX2         !
 ! D195  D(17,57,58,59)   179.9422  179.9986 -179.7151 estimate D2E/DX2         !
 ! D196  D(60,57,58,18)  -179.9996  179.991  -179.607  estimate D2E/DX2         !
 ! D197  D(60,57,58,59)     0.0275   -0.0036    0.1226 estimate D2E/DX2         !
 --------------------------------------------------------------------------------
 Trust Radius=3.00D-01 FncErr=1.00D-07 GrdErr=1.00D-06 EigMax=2.50D+02 EigMin=1.00D-04
 Number of steps in this run=    378 maximum allowed number of steps=    378.
 Search for a saddle point of order  1.
 GradGradGradGradGradGradGradGradGradGradGradGradGradGradGradGradGradGrad

 Stoichiometry    C34H21BrMnN3O3
 Framework group  C1[X(C34H21BrMnN3O3)]
 Deg. of freedom   183
 Full point group                 C1      NOp   1
 Largest Abelian subgroup         C1      NOp   1
 Largest concise Abelian subgroup C1      NOp   1
                         Standard orientation:                         
 ---------------------------------------------------------------------
 Center     Atomic      Atomic             Coordinates (Angstroms)
 Number     Number       Type             X           Y           Z
 ---------------------------------------------------------------------
      1         25           0       -1.564484   -1.753346   -0.218289
      2          6           0       -2.498510   -2.444635   -1.637781
      3          8           0       -2.950018   -2.967227   -2.550807
      4          6           0       -2.451138   -2.818825    0.983563
      5          8           0       -2.875039   -3.571644    1.735061
      6          6           0       -0.419967   -3.083097   -0.438064
      7          7           0       -0.502882   -1.033130    1.497919
      8          6           0       -0.586770    0.188801    3.556688
      9          6           0        0.798297    0.332332    3.554056
     10          6           0        0.830404   -0.984025    1.564668
     11          1           0       -1.198314    0.621689    4.351570
     12          1           0        1.297454    0.908042    4.338127
     13          7           0       -2.147111    0.607303    0.143359
     14          6           0       -2.314214    1.744230    0.265977
     15          6           0       -2.552575    3.157265    0.393854
     16          6           0       -1.473851    4.048512    0.440516
     17          6           0       -1.721100    5.414820    0.558557
     18          6           0       -3.869937    3.626545    0.466529
     19          1           0       -0.454870    3.665409    0.381642
     20          1           0       -4.696506    2.914213    0.426403
     21          7           0       -0.540193   -0.558212   -1.660762
     22          6           0       -0.661855    1.226669   -3.253943
     23          6           0        0.724218    1.357360   -3.249052
     24          1           0       -1.289781    1.881545   -3.860153
     25          6           0       -1.197979   -0.480751    2.506531
     26          1           0       -2.286972   -0.558257    2.453042
     27          6           0       -1.253287    0.270981   -2.440872
     28          1           0       -2.341049    0.180701   -2.385314
     29          1           0       -0.886964    6.117180    0.591943
     30          8           0        0.280477   -3.986207   -0.594128
     31          6           0        3.049470    0.364777    0.045891
     32          6           0        5.826113    0.182677   -0.012390
     33          6           0        1.545113   -0.269071    2.536025
     34          6           0        3.032956   -0.181584    2.486100
     35          6           0        3.772062   -0.394615    3.622855
     36          6           0        5.199306   -0.383721    3.603049
     37          6           0        5.875018   -0.202836    2.431833
     38          6           0        5.160064    0.016159    1.208119
     39          6           0        3.724796    0.078867    1.236944
     40          1           0        3.260860   -0.616189    4.563737
     41          1           0        5.743871   -0.554582    4.535112
     42          1           0        6.968168   -0.229244    2.403608
     43          6           0        3.697814    0.426525   -1.192427
     44          6           0        5.132408    0.357625   -1.216112
     45          6           0        5.817278    0.482498   -2.470095
     46          6           0        5.113752    0.633711   -3.628909
     47          6           0        3.686934    0.638960   -3.616678
     48          6           0        2.976243    0.532714   -2.447283
     49          1           0        6.910154    0.445504   -2.477331
     50          1           0        5.636069    0.723354   -4.584737
     51          1           0        3.153251    0.690143   -4.569614
     52          6           0        1.487708    0.474174   -2.481499
     53          1           0        1.210104    2.143131   -3.834148
     54          6           0        0.789868   -0.493533   -1.746377
     55          1           0        1.349098   -1.251705   -1.199024
     56          1           0        1.376861   -1.542527    0.803229
     57          6           0       -3.030409    5.886348    0.632633
     58          6           0       -4.101629    4.995110    0.587668
     59          1           0       -5.124227    5.369678    0.647001
     60          1           0       -3.219340    6.960486    0.727914
     61         35           0       -4.546948   -1.195636   -0.102770
     62          1           0        6.919916    0.158305   -0.028685
     63          1           0        1.975850    0.537122    0.081793
 ---------------------------------------------------------------------
 Rotational constants (GHZ):           0.0938000           0.0544584           0.0510843
 General basis read from cards:  (5D, 7F)
 There are   802 symmetry adapted cartesian basis functions of A   symmetry.
 There are   751 symmetry adapted basis functions of A   symmetry.
   751 basis functions,  1339 primitive gaussians,   802 cartesian basis functions
   165 alpha electrons      165 beta electrons
       nuclear repulsion energy      6066.1960223153 Hartrees.
 NAtoms=   63 NActive=   63 NUniq=   63 SFac= 1.00D+00 NAtFMM=   60 NAOKFM=T Big=T
 Integral buffers will be    131072 words long.
 Raffenetti 2 integral format.
 Two-electron integral symmetry is turned on.
 Nuclear repulsion after empirical dispersion term =     6066.1309908586 Hartrees.
 ------------------------------------------------------------------------------
 Polarizable Continuum Model (PCM)
 =================================
 Model                : PCM.
 Atomic radii         : UFF (Universal Force Field).
 Polarization charges : Total charges.
 Charge compensation  : None.
 Solution method      : On-the-fly selection.
 Cavity type          : Scaled VdW (van der Waals Surface) (Alpha=1.100).
 Cavity algorithm     : GePol (No added spheres)
                        Default sphere list used, NSphG=   63.
                        Lebedev-Laikov grids with approx.  5.0 points / Ang**2.
                        Smoothing algorithm: York/Karplus (Gamma=1.0000).
                        Polarization charges: spherical gaussians, with
                                              point-specific exponents (IZeta= 3).
                        Self-potential: point-specific (ISelfS= 7).
                        Self-field    : sphere-specific E.n sum rule (ISelfD= 2).
 1st derivatives      : Analytical E(r).r(x)/FMM algorithm (CHGder, D1EAlg=3).
                        Cavity 1st derivative terms included.
 Solvent              : TetraHydroFuran, Eps=   7.425700 Eps(inf)=   1.974025
 ------------------------------------------------------------------------------
 One-electron integrals computed using PRISM.
 PrsmSu:  requested number of processors reduced to:  11 ShMem   1 Linda.
 NBasis=   751 RedAO= T EigKep=  2.27D-04  NBF=   751
 NBsUse=   751 1.00D-06 EigRej= -1.00D+00 NBFU=   751
 ExpMin= 3.93D-02 ExpMax= 2.77D+05 ExpMxC= 1.70D+04 IAcc=3 IRadAn=         5 AccDes= 0.00D+00
 Harris functional with IExCor= 4639 and IRadAn=       5 diagonalized for initial guess.
 HarFok:  IExCor= 4639 AccDes= 0.00D+00 IRadAn=         5 IDoV= 1 UseB2=F ITyADJ=14
 ICtDFT=  3500011 ScaDFX=  1.000000  1.000000  1.000000  1.000000
 FoFCou: FMM=F IPFlag=           0 FMFlag=      100000 FMFlg1=        2001
         NFxFlg=           0 DoJE=T BraDBF=F KetDBF=T FulRan=T
         wScrn=  0.000000 ICntrl=       500 IOpCl=  0 I1Cent=   200000004 NGrid=           0
         NMat0=    1 NMatS0=      1 NMatT0=    0 NMatD0=    1 NMtDS0=    0 NMtDT0=    0
 Petite list used in FoFCou.
 Requested convergence on RMS density matrix=1.00D-08 within 128 cycles.
 Requested convergence on MAX density matrix=1.00D-06.
 Requested convergence on             energy=1.00D-06.
 No special actions if energy rises.
 CoulSu:  requested number of processors reduced to:  10 ShMem   1 Linda.
 Inv3:  Mode=1 IEnd=    67488147.
 Iteration    1 A*A^-1 deviation from unit magnitude is 3.11D-15 for   1472.
 Iteration    1 A*A^-1 deviation from orthogonality  is 3.00D-15 for   3231   1094.
 Iteration    1 A^-1*A deviation from unit magnitude is 3.33D-15 for   2006.
 Iteration    1 A^-1*A deviation from orthogonality  is 2.11D-15 for   4375   1575.
 CoulSu:  requested number of processors reduced to:  10 ShMem   1 Linda.
 CoulSu:  requested number of processors reduced to:  10 ShMem   1 Linda.
 Error on total polarization charges =  0.02022
 SCF Done:  E(RwB97XD) =  -5421.43094089     A.U. after   19 cycles
            NFock= 19  Conv=0.77D-08     -V/T= 2.0041

 **********************************************************************

            Population analysis using the SCF density.

 **********************************************************************

 Orbital symmetries:
       Occupied  (A) (A) (A) (A) (A) (A) (A) (A) (A) (A) (A) (A)
                 (A) (A) (A) (A) (A) (A) (A) (A) (A) (A) (A) (A)
                 (A) (A) (A) (A) (A) (A) (A) (A) (A) (A) (A) (A)
                 (A) (A) (A) (A) (A) (A) (A) (A) (A) (A) (A) (A)
                 (A) (A) (A) (A) (A) (A) (A) (A) (A) (A) (A) (A)
                 (A) (A) (A) (A) (A) (A) (A) (A) (A) (A) (A) (A)
                 (A) (A) (A) (A) (A) (A) (A) (A) (A) (A) (A) (A)
                 (A) (A) (A) (A) (A) (A) (A) (A) (A) (A) (A) (A)
                 (A) (A) (A) (A) (A) (A) (A) (A) (A) (A) (A) (A)
                 (A) (A) (A) (A) (A) (A) (A) (A) (A) (A) (A) (A)
                 (A) (A) (A) (A) (A) (A) (A) (A) (A) (A) (A) (A)
                 (A) (A) (A) (A) (A) (A) (A) (A) (A) (A) (A) (A)
                 (A) (A) (A) (A) (A) (A) (A) (A) (A) (A) (A) (A)
                 (A) (A) (A) (A) (A) (A) (A) (A) (A)
       Virtual   (A) (A) (A) (A) (A) (A) (A) (A) (A) (A) (A) (A)
                 (A) (A) (A) (A) (A) (A) (A) (A) (A) (A) (A) (A)
                 (A) (A) (A) (A) (A) (A) (A) (A) (A) (A) (A) (A)
                 (A) (A) (A) (A) (A) (A) (A) (A) (A) (A) (A) (A)
                 (A) (A) (A) (A) (A) (A) (A) (A) (A) (A) (A) (A)
                 (A) (A) (A) (A) (A) (A) (A) (A) (A) (A) (A) (A)
                 (A) (A) (A) (A) (A) (A) (A) (A) (A) (A) (A) (A)
                 (A) (A) (A) (A) (A) (A) (A) (A) (A) (A) (A) (A)
                 (A) (A) (A) (A) (A) (A) (A) (A) (A) (A) (A) (A)
                 (A) (A) (A) (A) (A) (A) (A) (A) (A) (A) (A) (A)
                 (A) (A) (A) (A) (A) (A) (A) (A) (A) (A) (A) (A)
                 (A) (A) (A) (A) (A) (A) (A) (A) (A) (A) (A) (A)
                 (A) (A) (A) (A) (A) (A) (A) (A) (A) (A) (A) (A)
                 (A) (A) (A) (A) (A) (A) (A) (A) (A) (A) (A) (A)
                 (A) (A) (A) (A) (A) (A) (A) (A) (A) (A) (A) (A)
                 (A) (A) (A) (A) (A) (A) (A) (A) (A) (A) (A) (A)
                 (A) (A) (A) (A) (A) (A) (A) (A) (A) (A) (A) (A)
                 (A) (A) (A) (A) (A) (A) (A) (A) (A) (A) (A) (A)
                 (A) (A) (A) (A) (A) (A) (A) (A) (A) (A) (A) (A)
                 (A) (A) (A) (A) (A) (A) (A) (A) (A) (A) (A) (A)
                 (A) (A) (A) (A) (A) (A) (A) (A) (A) (A) (A) (A)
                 (A) (A) (A) (A) (A) (A) (A) (A) (A) (A) (A) (A)
                 (A) (A) (A) (A) (A) (A) (A) (A) (A) (A) (A) (A)
                 (A) (A) (A) (A) (A) (A) (A) (A) (A) (A) (A) (A)
                 (A) (A) (A) (A) (A) (A) (A) (A) (A) (A) (A) (A)
                 (A) (A) (A) (A) (A) (A) (A) (A) (A) (A) (A) (A)
                 (A) (A) (A) (A) (A) (A) (A) (A) (A) (A) (A) (A)
                 (A) (A) (A) (A) (A) (A) (A) (A) (A) (A) (A) (A)
                 (A) (A) (A) (A) (A) (A) (A) (A) (A) (A) (A) (A)
                 (A) (A) (A) (A) (A) (A) (A) (A) (A) (A) (A) (A)
                 (A) (A) (A) (A) (A) (A) (A) (A) (A) (A) (A) (A)
                 (A) (A) (A) (A) (A) (A) (A) (A) (A) (A) (A) (A)
                 (A) (A) (A) (A) (A) (A) (A) (A) (A) (A) (A) (A)
                 (A) (A) (A) (A) (A) (A) (A) (A) (A) (A) (A) (A)
                 (A) (A) (A) (A) (A) (A) (A) (A) (A) (A) (A) (A)
                 (A) (A) (A) (A) (A) (A) (A) (A) (A) (A) (A) (A)
                 (A) (A) (A) (A) (A) (A) (A) (A) (A) (A) (A) (A)
                 (A) (A) (A) (A) (A) (A) (A) (A) (A) (A) (A) (A)
                 (A) (A) (A) (A) (A) (A) (A) (A) (A) (A) (A) (A)
                 (A) (A) (A) (A) (A) (A) (A) (A) (A) (A) (A) (A)
                 (A) (A) (A) (A) (A) (A) (A) (A) (A) (A) (A) (A)
                 (A) (A) (A) (A) (A) (A) (A) (A) (A) (A) (A) (A)
                 (A) (A) (A) (A) (A) (A) (A) (A) (A) (A) (A) (A)
                 (A) (A) (A) (A) (A) (A) (A) (A) (A) (A) (A) (A)
                 (A) (A) (A) (A) (A) (A) (A) (A) (A) (A) (A) (A)
                 (A) (A) (A) (A) (A) (A) (A) (A) (A) (A) (A) (A)
                 (A) (A) (A) (A) (A) (A) (A) (A) (A) (A) (A) (A)
                 (A) (A) (A) (A) (A) (A) (A) (A) (A) (A) (A) (A)
                 (A) (A) (A) (A) (A) (A) (A) (A) (A) (A)
 The electronic state is 1-A.
 Alpha  occ. eigenvalues -- -482.96366-235.68992 -62.54406 -56.34987 -56.34954
 Alpha  occ. eigenvalues --  -56.34938 -27.45727 -23.51544 -23.51501 -23.51131
 Alpha  occ. eigenvalues --  -19.32886 -19.32799 -19.32622 -14.49924 -14.49889
 Alpha  occ. eigenvalues --  -14.46997 -10.40752 -10.40707 -10.40382 -10.36612
 Alpha  occ. eigenvalues --  -10.36601 -10.36490 -10.36037 -10.36029 -10.35691
 Alpha  occ. eigenvalues --  -10.34345 -10.34326 -10.34213 -10.34198 -10.33539
 Alpha  occ. eigenvalues --  -10.33492 -10.33478 -10.33368 -10.33238 -10.33231
 Alpha  occ. eigenvalues --  -10.33002 -10.32993 -10.32775 -10.32770 -10.32731
 Alpha  occ. eigenvalues --  -10.32481 -10.32391 -10.32189 -10.32186 -10.32005
 Alpha  occ. eigenvalues --  -10.31987 -10.31906 -10.31899 -10.31757 -10.31747
 Alpha  occ. eigenvalues --   -8.71178  -6.52949  -6.52830  -6.52772  -3.25141
 Alpha  occ. eigenvalues --   -2.63448  -2.63427  -2.63380  -2.63285  -2.63281
 Alpha  occ. eigenvalues --   -2.10835  -2.10474  -2.09833  -1.21897  -1.21808
 Alpha  occ. eigenvalues --   -1.21309  -1.08003  -1.07702  -1.02617  -1.00074
 Alpha  occ. eigenvalues --   -0.98073  -0.97376  -0.94140  -0.92938  -0.91193
 Alpha  occ. eigenvalues --   -0.90492  -0.89442  -0.88353  -0.87146  -0.86469
 Alpha  occ. eigenvalues --   -0.85034  -0.84786  -0.81756  -0.76501  -0.76334
 Alpha  occ. eigenvalues --   -0.75491  -0.75038  -0.75000  -0.74776  -0.74122
 Alpha  occ. eigenvalues --   -0.72201  -0.72050  -0.70028  -0.68758  -0.67342
 Alpha  occ. eigenvalues --   -0.65847  -0.64530  -0.64426  -0.64279  -0.63769
 Alpha  occ. eigenvalues --   -0.63628  -0.62395  -0.61800  -0.60595  -0.59687
 Alpha  occ. eigenvalues --   -0.59317  -0.57526  -0.57423  -0.57381  -0.57059
 Alpha  occ. eigenvalues --   -0.56235  -0.56004  -0.55667  -0.55643  -0.55226
 Alpha  occ. eigenvalues --   -0.55003  -0.54550  -0.54488  -0.54125  -0.54060
 Alpha  occ. eigenvalues --   -0.53241  -0.53237  -0.53043  -0.52806  -0.52287
 Alpha  occ. eigenvalues --   -0.52158  -0.51764  -0.51063  -0.51005  -0.50786
 Alpha  occ. eigenvalues --   -0.50549  -0.50189  -0.49896  -0.49334  -0.48933
 Alpha  occ. eigenvalues --   -0.48216  -0.48140  -0.47412  -0.47099  -0.46326
 Alpha  occ. eigenvalues --   -0.46051  -0.45314  -0.44712  -0.44163  -0.43523
 Alpha  occ. eigenvalues --   -0.42861  -0.41691  -0.41334  -0.40834  -0.40466
 Alpha  occ. eigenvalues --   -0.39966  -0.39187  -0.37580  -0.36251  -0.35709
 Alpha  occ. eigenvalues --   -0.35426  -0.33740  -0.33261  -0.33173  -0.32103
 Alpha  occ. eigenvalues --   -0.30896  -0.29944  -0.29697  -0.27878  -0.27400
 Alpha virt. eigenvalues --   -0.02928  -0.00059   0.00533   0.00629   0.02054
 Alpha virt. eigenvalues --    0.02374   0.02505   0.03795   0.03998   0.05781
 Alpha virt. eigenvalues --    0.05830   0.06885   0.07765   0.08121   0.09084
 Alpha virt. eigenvalues --    0.09377   0.09642   0.09942   0.11622   0.12179
 Alpha virt. eigenvalues --    0.12299   0.12863   0.13564   0.13843   0.14089
 Alpha virt. eigenvalues --    0.14412   0.14745   0.15286   0.15392   0.16207
 Alpha virt. eigenvalues --    0.16238   0.16579   0.17290   0.18046   0.18823
 Alpha virt. eigenvalues --    0.19101   0.19696   0.19731   0.20654   0.20823
 Alpha virt. eigenvalues --    0.20856   0.21875   0.22165   0.22302   0.22866
 Alpha virt. eigenvalues --    0.23139   0.23469   0.23636   0.24872   0.25274
 Alpha virt. eigenvalues --    0.26769   0.27442   0.27741   0.27821   0.28649
 Alpha virt. eigenvalues --    0.28880   0.30087   0.30151   0.30772   0.30887
 Alpha virt. eigenvalues --    0.31227   0.31714   0.32374   0.32751   0.32972
 Alpha virt. eigenvalues --    0.33332   0.33484   0.34018   0.34054   0.34097
 Alpha virt. eigenvalues --    0.34248   0.34967   0.35595   0.35752   0.36178
 Alpha virt. eigenvalues --    0.36406   0.36639   0.36813   0.37152   0.37418
 Alpha virt. eigenvalues --    0.38312   0.38517   0.38985   0.39131   0.40008
 Alpha virt. eigenvalues --    0.40391   0.40746   0.41897   0.42094   0.42175
 Alpha virt. eigenvalues --    0.42330   0.42753   0.42816   0.44088   0.44268
 Alpha virt. eigenvalues --    0.44695   0.45882   0.46186   0.47139   0.47365
 Alpha virt. eigenvalues --    0.47623   0.48390   0.48677   0.48679   0.49391
 Alpha virt. eigenvalues --    0.50392   0.50576   0.50889   0.51193   0.51646
 Alpha virt. eigenvalues --    0.52521   0.52592   0.52948   0.53049   0.53377
 Alpha virt. eigenvalues --    0.53494   0.53529   0.54434   0.54566   0.54891
 Alpha virt. eigenvalues --    0.55427   0.55545   0.56082   0.56151   0.56230
 Alpha virt. eigenvalues --    0.56919   0.57356   0.57913   0.58227   0.58672
 Alpha virt. eigenvalues --    0.59060   0.59799   0.60202   0.60321   0.60798
 Alpha virt. eigenvalues --    0.61057   0.61504   0.61673   0.62088   0.62587
 Alpha virt. eigenvalues --    0.63105   0.64138   0.64461   0.64776   0.65145
 Alpha virt. eigenvalues --    0.66092   0.66283   0.66508   0.66989   0.67294
 Alpha virt. eigenvalues --    0.67649   0.68383   0.68440   0.68629   0.69358
 Alpha virt. eigenvalues --    0.69680   0.70279   0.70407   0.70662   0.71549
 Alpha virt. eigenvalues --    0.71868   0.72040   0.72175   0.72646   0.72708
 Alpha virt. eigenvalues --    0.73138   0.73241   0.73612   0.73652   0.74039
 Alpha virt. eigenvalues --    0.74619   0.74680   0.74868   0.75147   0.75626
 Alpha virt. eigenvalues --    0.75874   0.76080   0.76262   0.76611   0.76921
 Alpha virt. eigenvalues --    0.77292   0.77321   0.77683   0.77809   0.78931
 Alpha virt. eigenvalues --    0.79043   0.79365   0.79612   0.80419   0.80498
 Alpha virt. eigenvalues --    0.80593   0.80650   0.81360   0.81645   0.81941
 Alpha virt. eigenvalues --    0.82464   0.82592   0.82980   0.83446   0.83881
 Alpha virt. eigenvalues --    0.84437   0.84952   0.85359   0.85773   0.85959
 Alpha virt. eigenvalues --    0.86169   0.86294   0.86839   0.87190   0.87630
 Alpha virt. eigenvalues --    0.87870   0.88117   0.88589   0.88959   0.89679
 Alpha virt. eigenvalues --    0.90181   0.90484   0.90850   0.91175   0.91290
 Alpha virt. eigenvalues --    0.91931   0.92250   0.92362   0.93171   0.94141
 Alpha virt. eigenvalues --    0.94723   0.95789   0.95912   0.96309   0.96592
 Alpha virt. eigenvalues --    0.96960   0.97382   0.97904   0.98200   0.99371
 Alpha virt. eigenvalues --    1.00655   1.00921   1.01805   1.02150   1.02348
 Alpha virt. eigenvalues --    1.02984   1.03590   1.05978   1.06656   1.07140
 Alpha virt. eigenvalues --    1.07895   1.07997   1.09439   1.10764   1.11354
 Alpha virt. eigenvalues --    1.11841   1.12539   1.13037   1.14687   1.15904
 Alpha virt. eigenvalues --    1.16020   1.16274   1.16879   1.17151   1.17590
 Alpha virt. eigenvalues --    1.18075   1.18797   1.19140   1.20653   1.21637
 Alpha virt. eigenvalues --    1.22018   1.23014   1.23891   1.25182   1.25630
 Alpha virt. eigenvalues --    1.25915   1.26528   1.26630   1.28155   1.28519
 Alpha virt. eigenvalues --    1.29539   1.29603   1.29735   1.30527   1.30638
 Alpha virt. eigenvalues --    1.30845   1.31532   1.31796   1.31961   1.32302
 Alpha virt. eigenvalues --    1.32500   1.33962   1.34283   1.34353   1.35080
 Alpha virt. eigenvalues --    1.35356   1.35577   1.35768   1.35897   1.36154
 Alpha virt. eigenvalues --    1.36286   1.37929   1.38156   1.38577   1.39017
 Alpha virt. eigenvalues --    1.39710   1.39925   1.41017   1.42258   1.42481
 Alpha virt. eigenvalues --    1.43654   1.44300   1.45177   1.45218   1.46199
 Alpha virt. eigenvalues --    1.47714   1.49676   1.50738   1.51026   1.52424
 Alpha virt. eigenvalues --    1.55477   1.55816   1.56430   1.58616   1.59843
 Alpha virt. eigenvalues --    1.60311   1.61601   1.62743   1.64514   1.64758
 Alpha virt. eigenvalues --    1.66498   1.66593   1.67828   1.67954   1.69620
 Alpha virt. eigenvalues --    1.70886   1.72082   1.72668   1.72961   1.73108
 Alpha virt. eigenvalues --    1.73180   1.73600   1.73920   1.74096   1.74852
 Alpha virt. eigenvalues --    1.75459   1.75801   1.77021   1.77334   1.77616
 Alpha virt. eigenvalues --    1.78361   1.78438   1.79215   1.79313   1.79662
 Alpha virt. eigenvalues --    1.79744   1.80127   1.80672   1.80743   1.81128
 Alpha virt. eigenvalues --    1.81321   1.81662   1.81813   1.82030   1.82352
 Alpha virt. eigenvalues --    1.82403   1.82529   1.82685   1.82964   1.83208
 Alpha virt. eigenvalues --    1.83958   1.84062   1.84410   1.84968   1.85137
 Alpha virt. eigenvalues --    1.85971   1.86084   1.86895   1.87440   1.88015
 Alpha virt. eigenvalues --    1.88758   1.89688   1.90029   1.90449   1.90656
 Alpha virt. eigenvalues --    1.91000   1.91167   1.92435   1.92467   1.94186
 Alpha virt. eigenvalues --    1.94492   1.95041   1.95929   1.96672   1.96779
 Alpha virt. eigenvalues --    1.96917   1.98161   1.98286   1.99515   2.00068
 Alpha virt. eigenvalues --    2.00588   2.00904   2.01600   2.01721   2.02659
 Alpha virt. eigenvalues --    2.03057   2.03643   2.03854   2.04467   2.04522
 Alpha virt. eigenvalues --    2.05369   2.05513   2.05558   2.06623   2.07210
 Alpha virt. eigenvalues --    2.08743   2.09042   2.09845   2.10305   2.10537
 Alpha virt. eigenvalues --    2.11250   2.11883   2.12108   2.13973   2.14994
 Alpha virt. eigenvalues --    2.15501   2.15598   2.16801   2.17013   2.17289
 Alpha virt. eigenvalues --    2.18033   2.18687   2.19875   2.20110   2.20647
 Alpha virt. eigenvalues --    2.20822   2.21235   2.21294   2.21537   2.23030
 Alpha virt. eigenvalues --    2.23893   2.23956   2.24577   2.25864   2.26551
 Alpha virt. eigenvalues --    2.26972   2.29610   2.30284   2.31322   2.31537
 Alpha virt. eigenvalues --    2.31783   2.32102   2.32561   2.34350   2.34398
 Alpha virt. eigenvalues --    2.34972   2.36799   2.36892   2.37040   2.37426
 Alpha virt. eigenvalues --    2.38099   2.38226   2.38565   2.39111   2.39746
 Alpha virt. eigenvalues --    2.40779   2.41371   2.41944   2.42091   2.43080
 Alpha virt. eigenvalues --    2.44175   2.45271   2.45407   2.46368   2.46894
 Alpha virt. eigenvalues --    2.47995   2.48501   2.50171   2.50603   2.50661
 Alpha virt. eigenvalues --    2.54042   2.55499   2.57029   2.58093   2.59210
 Alpha virt. eigenvalues --    2.60668   2.61232   2.61744   2.64098   2.64680
 Alpha virt. eigenvalues --    2.66113   2.66630   2.66967   2.67208   2.67564
 Alpha virt. eigenvalues --    2.68220   2.68362   2.70933   2.70995   2.71210
 Alpha virt. eigenvalues --    2.71330   2.71411   2.71823   2.72070   2.72200
 Alpha virt. eigenvalues --    2.72543   2.72819   2.74061   2.74389   2.74730
 Alpha virt. eigenvalues --    2.75730   2.76616   2.79307   2.79456   2.79910
 Alpha virt. eigenvalues --    2.80537   2.80639   2.80811   2.81786   2.82250
 Alpha virt. eigenvalues --    2.84618   2.85884   2.86280   2.87049   2.87374
 Alpha virt. eigenvalues --    2.89722   2.89784   2.91695   2.94139   2.94981
 Alpha virt. eigenvalues --    2.95840   2.97902   2.98250   2.99445   3.01180
 Alpha virt. eigenvalues --    3.03193   3.05119   3.06011   3.06274   3.07608
 Alpha virt. eigenvalues --    3.08937   3.09619   3.10246   3.11866   3.12798
 Alpha virt. eigenvalues --    3.16077   3.16160   3.19441   3.19914   3.20790
 Alpha virt. eigenvalues --    3.21038   3.21202   3.22390   3.23404   3.24982
 Alpha virt. eigenvalues --    3.25578   3.30020   3.31272   3.32859   3.35062
 Alpha virt. eigenvalues --    3.38432   3.39196   3.42241   3.48382   3.48623
 Alpha virt. eigenvalues --    3.50737   3.52706   3.56248   3.57857   3.62161
 Alpha virt. eigenvalues --    3.62656   3.63430   3.64191   3.64614   3.65780
 Alpha virt. eigenvalues --    3.66511   3.67050   3.70030   3.71967   3.72766
 Alpha virt. eigenvalues --    3.75992   3.76871   3.77118   3.82488   3.82785
 Alpha virt. eigenvalues --    3.87878   3.91120   3.95630   3.99791   4.06068
 Alpha virt. eigenvalues --    4.14140
          Condensed to atoms (all electrons):
 Mulliken charges:
               1
     1  Mn  -0.696726
     2  C    0.353952
     3  O   -0.071265
     4  C    0.355543
     5  O   -0.070475
     6  C    0.308107
     7  N   -0.215766
     8  C   -0.036997
     9  C    0.036221
    10  C    0.093314
    11  H    0.060765
    12  H    0.053767
    13  N    0.044218
    14  C    0.003088
    15  C   -0.154465
    16  C    0.024511
    17  C   -0.024965
    18  C    0.024018
    19  H    0.044818
    20  H    0.064880
    21  N   -0.215210
    22  C   -0.037509
    23  C    0.037882
    24  H    0.060159
    25  C    0.106569
    26  H    0.091141
    27  C    0.106606
    28  H    0.091026
    29  H    0.051500
    30  O   -0.091602
    31  C   -0.184067
    32  C   -0.083858
    33  C   -0.040370
    34  C    0.063864
    35  C   -0.067049
    36  C   -0.018316
    37  C   -0.018692
    38  C    0.016266
    39  C    0.081617
    40  H    0.035493
    41  H    0.043417
    42  H    0.031930
    43  C    0.081127
    44  C    0.015971
    45  C   -0.018354
    46  C   -0.018863
    47  C   -0.065436
    48  C    0.062024
    49  H    0.031696
    50  H    0.043354
    51  H    0.035337
    52  C   -0.042363
    53  H    0.053777
    54  C    0.095355
    55  H    0.063540
    56  H    0.064583
    57  C   -0.007068
    58  C   -0.023537
    59  H    0.053241
    60  H    0.055754
    61  Br  -0.803685
    62  H    0.020716
    63  H    0.045490
 Sum of Mulliken charges =  -0.00000
 Mulliken charges with hydrogens summed into heavy atoms:
               1
     1  Mn  -0.696726
     2  C    0.353952
     3  O   -0.071265
     4  C    0.355543
     5  O   -0.070475
     6  C    0.308107
     7  N   -0.215766
     8  C    0.023768
     9  C    0.089987
    10  C    0.157897
    13  N    0.044218
    14  C    0.003088
    15  C   -0.154465
    16  C    0.069329
    17  C    0.026535
    18  C    0.088898
    21  N   -0.215210
    22  C    0.022650
    23  C    0.091659
    25  C    0.197710
    27  C    0.197633
    30  O   -0.091602
    31  C   -0.138577
    32  C   -0.063142
    33  C   -0.040370
    34  C    0.063864
    35  C   -0.031556
    36  C    0.025102
    37  C    0.013238
    38  C    0.016266
    39  C    0.081617
    43  C    0.081127
    44  C    0.015971
    45  C    0.013342
    46  C    0.024492
    47  C   -0.030100
    48  C    0.062024
    52  C   -0.042363
    54  C    0.158895
    57  C    0.048686
    58  C    0.029704
    61  Br  -0.803685
 Electronic spatial extent (au):  <R**2>=          23255.2368
 Charge=             -0.0000 electrons
 Dipole moment (field-independent basis, Debye):
    X=             16.3100    Y=             13.5112    Z=              1.5955  Tot=             21.2394
 Quadrupole moment (field-independent basis, Debye-Ang):
   XX=           -291.0403   YY=           -249.5867   ZZ=           -221.7226
   XY=            -41.1003   XZ=             -4.3532   YZ=             -5.2247
 Traceless Quadrupole moment (field-independent basis, Debye-Ang):
   XX=            -36.9237   YY=              4.5298   ZZ=             32.3939
   XY=            -41.1003   XZ=             -4.3532   YZ=             -5.2247
 Octapole moment (field-independent basis, Debye-Ang**2):
  XXX=            371.1998  YYY=            158.2607  ZZZ=             12.5974  XYY=           -134.1798
  XXY=            154.8500  XXZ=             17.2038  XZZ=             34.4856  YZZ=             13.5515
  YYZ=              9.7866  XYZ=            -22.5838
 Hexadecapole moment (field-independent basis, Debye-Ang**3):
 XXXX=         -16334.0214 YYYY=          -6619.6835 ZZZZ=          -5729.5660 XXXY=           -693.4472
 XXXZ=            -76.4163 YYYX=           -400.7594 YYYZ=            157.8464 ZZZX=              9.7399
 ZZZY=           -143.6766 XXYY=          -4013.3604 XXZZ=          -3461.8468 YYZZ=          -2474.1862
 XXYZ=            -48.1148 YYXZ=            -53.4496 ZZXY=             46.7993
 N-N= 6.066130990859D+03 E-N=-2.496122308656D+04  KE= 5.399397551456D+03
 PrsmSu:  requested number of processors reduced to:  11 ShMem   1 Linda.
 D1PCM: PCM CHGder 1st derivatives, ID1Alg=3 FixD1E=F DoIter=F DoCFld=F I1PDM=0.
 CoulSu:  requested number of processors reduced to:  10 ShMem   1 Linda.
 CoulSu:  requested number of processors reduced to:  10 ShMem   1 Linda.
[...]
   D52       -3.05943  -0.00004   0.00000  -0.00106  -0.00111  -3.06054
   D53       -3.06346   0.00006   0.00000   0.00128   0.00126  -3.06219
   D54        0.07713   0.00005   0.00000   0.00183   0.00179   0.07892
   D55        2.93869   0.00014   0.00000   0.04188   0.04187   2.98056
   D56        0.19976   0.00017   0.00000   0.01007   0.00941   0.20916
   D57       -2.95435   0.00011   0.00000   0.01922   0.01850  -2.93585
   D58       -2.94971  -0.00007   0.00000  -0.06039  -0.06022  -3.00993
   D59        3.13197   0.00004   0.00000   0.00615   0.00595   3.13792
   D60       -0.01031   0.00006   0.00000  -0.00197  -0.00226  -0.01257
   D61       -0.00148   0.00003   0.00000   0.00026   0.00051  -0.00096
   D62        3.13943   0.00005   0.00000  -0.00785  -0.00770   3.13173
   D63        0.00880  -0.00001   0.00000  -0.00725  -0.00695   0.00184
   D64       -3.13232  -0.00006   0.00000  -0.00573  -0.00558  -3.13790
   D65       -3.14109   0.00000   0.00000  -0.00130  -0.00143   3.14066
   D66        0.00098  -0.00004   0.00000   0.00021  -0.00006   0.00092
   D67        3.14134  -0.00000   0.00000  -0.00250  -0.00259   3.13875
   D68        0.00070  -0.00000   0.00000  -0.00080  -0.00089  -0.00019
   D69        0.00043  -0.00002   0.00000   0.00568   0.00570   0.00614
   D70       -3.14020  -0.00002   0.00000   0.00738   0.00740  -3.13280
   D71       -0.87400  -0.00002   0.00000  -0.02448  -0.02429  -0.89829
   D72        2.26690  -0.00000   0.00000  -0.03269  -0.03260   2.23430
   D73        0.00055  -0.00001   0.00000   0.00087   0.00083   0.00138
   D74       -3.14110  -0.00002   0.00000  -0.00015  -0.00016  -3.14125
   D75       -3.14007  -0.00001   0.00000   0.00258   0.00253  -3.13754
   D76        0.00146  -0.00002   0.00000   0.00156   0.00155   0.00301
   D77       -0.90068  -0.00014   0.00000   0.01636   0.01586  -0.88482
   D78       -0.20373   0.00005   0.00000   0.03219   0.03207  -0.17166
   D79        2.24043  -0.00009   0.00000   0.01483   0.01447   2.25489
   D80        2.93737   0.00010   0.00000   0.03065   0.03068   2.96806
   D81        0.00029   0.00003   0.00000  -0.00015  -0.00001   0.00028
   D82        3.14086   0.00004   0.00000  -0.00006   0.00004   3.14090
   D83       -3.14082  -0.00001   0.00000   0.00137   0.00137  -3.13945
   D84       -0.00025  -0.00001   0.00000   0.00146   0.00142   0.00117
   D85        1.23765  -0.00015   0.00000  -0.03186  -0.03209   1.20556
   D86        2.97644  -0.00004   0.00000  -0.00248  -0.00247   2.97397
   D87       -0.13520  -0.00004   0.00000  -0.00130  -0.00130  -0.13650
   D88       -0.05461  -0.00006   0.00000  -0.00243  -0.00243  -0.05704
   D89        3.11694  -0.00006   0.00000  -0.00126  -0.00126   3.11568
   D90       -2.92052   0.00017   0.00000   0.00171   0.00171  -2.91882
   D91        0.22142   0.00004   0.00000   0.00185   0.00183   0.22325
   D92        0.10445   0.00019   0.00000   0.00203   0.00206   0.10651
   D93       -3.03679   0.00006   0.00000   0.00217   0.00218  -3.03461
   D94       -3.12513   0.00001   0.00000  -0.00030  -0.00031  -3.12544
   D95        0.02260   0.00004   0.00000  -0.00128  -0.00130   0.02131
   D96        0.05279   0.00002   0.00000   0.00116   0.00119   0.05398
   D97       -3.08266   0.00005   0.00000   0.00018   0.00020  -3.08246
   D98       -1.95453   0.00016   0.00000   0.01008   0.00990  -1.94463
   D99        1.15060   0.00015   0.00000   0.00864   0.00842   1.15901
   D100      -0.02218  -0.00003   0.00000   0.00092   0.00090  -0.02128
   D101       3.08837  -0.00003   0.00000  -0.00031  -0.00033   3.08804
   D102      -3.12810  -0.00001   0.00000   0.00232   0.00234  -3.12576
   D103      -0.01755  -0.00001   0.00000   0.00109   0.00111  -0.01644
   D104       3.13108   0.00010   0.00000  -0.00297  -0.00297   3.12811
   D105      -0.00834   0.00007   0.00000  -0.00158  -0.00159  -0.00994
   D106      -0.01663   0.00007   0.00000  -0.00199  -0.00198  -0.01861
   D107       3.12713   0.00004   0.00000  -0.00061  -0.00061   3.12652
   D108      -2.98214   0.00007   0.00000   0.00087   0.00092  -2.98122
   D109       0.14093   0.00005   0.00000  -0.00022  -0.00020   0.14073
   D110      -3.11367  -0.00001   0.00000   0.00005   0.00008  -3.11359
   D111       0.00940  -0.00002   0.00000  -0.00104  -0.00104   0.00836
   D112       0.14176   0.00010   0.00000   0.00136   0.00139   0.14316
   D113      -3.01835   0.00008   0.00000   0.00028   0.00028  -3.01808
   D114      -0.14121  -0.00007   0.00000  -0.00096  -0.00097  -0.14219
   D115       2.97975  -0.00006   0.00000  -0.00052  -0.00052   2.97923
   D116      -0.00971  -0.00000   0.00000  -0.00023  -0.00024  -0.00995
   D117       3.11125   0.00000   0.00000   0.00021   0.00022   3.11147
   D118       3.01811  -0.00010   0.00000  -0.00144  -0.00143   3.01667
   D119      -0.14412  -0.00009   0.00000  -0.00100  -0.00098  -0.14510
   D120      -1.63013  -0.00004   0.00000  -0.04005  -0.04016  -1.67029
   D121       1.63743   0.00002   0.00000  -0.03937  -0.03946   1.59797
   D122       3.10569  -0.00005   0.00000  -0.00188  -0.00191   3.10378
   D123      -0.04530  -0.00006   0.00000  -0.00164  -0.00166  -0.04696
   D124      -0.01517  -0.00006   0.00000  -0.00188  -0.00189  -0.01706
   D125       3.11702  -0.00006   0.00000  -0.00164  -0.00164   3.11538
   D126      -3.08096   0.00002   0.00000  -0.00072  -0.00074  -3.08170
   D127       0.05123   0.00002   0.00000  -0.00049  -0.00049   0.05074
   D128       0.04503   0.00003   0.00000   0.00040   0.00041   0.04544
   D129      -3.10570   0.00004   0.00000   0.00074   0.00076  -3.10494
   D130      -3.11731   0.00003   0.00000   0.00037   0.00037  -3.11694
   D131       0.01515   0.00004   0.00000   0.00071   0.00071   0.01586
   D132      -0.05145  -0.00004   0.00000  -0.00074  -0.00074  -0.05219
   D133       3.08101  -0.00003   0.00000  -0.00040  -0.00040   3.08062
   D134       0.84145   0.00006   0.00000   0.00494   0.00485   0.84631
   D135      -2.33496   0.00000   0.00000   0.00229   0.00218  -2.33278
   D136      -2.29908   0.00007   0.00000   0.00436   0.00430  -2.29478
   D137       0.80769   0.00001   0.00000   0.00172   0.00162   0.80932
   D138       3.09038  -0.00005   0.00000  -0.00147  -0.00148   3.08889
   D139      -0.01093  -0.00002   0.00000  -0.00080  -0.00082  -0.01174
   D140      -0.01686   0.00002   0.00000   0.00118   0.00120  -0.01566
   D141      -3.11816   0.00004   0.00000   0.00185   0.00187  -3.11630
   D142       0.08402   0.00003   0.00000   0.00000  -0.00001   0.08401
   D143      -3.03890   0.00004   0.00000   0.00109   0.00111  -3.03779
   D144      -3.09192  -0.00003   0.00000  -0.00260  -0.00264  -3.09457
   D145       0.06834  -0.00001   0.00000  -0.00152  -0.00152   0.06682
   D146      -0.03175  -0.00000   0.00000  -0.00006  -0.00008  -0.03183
   D147       3.14136   0.00001   0.00000   0.00064   0.00063  -3.14120
   D148       3.06983  -0.00003   0.00000  -0.00073  -0.00074   3.06909
   D149      -0.04024  -0.00001   0.00000  -0.00003  -0.00003  -0.04027
   D150       0.02713  -0.00001   0.00000  -0.00073  -0.00073   0.02639
   D151      -3.10618   0.00001   0.00000  -0.00008  -0.00006  -3.10624
   D152       3.13680  -0.00003   0.00000  -0.00143  -0.00145   3.13535
   D153       0.00350  -0.00001   0.00000  -0.00078  -0.00078   0.00272
   D154      -3.12589   0.00001   0.00000   0.00060   0.00063  -3.12526
   D155       0.02509   0.00002   0.00000   0.00037   0.00039   0.02548
   D156       0.00757  -0.00001   0.00000  -0.00004  -0.00002   0.00755
   D157      -3.12463  -0.00001   0.00000  -0.00027  -0.00027  -3.12490
   D158      -0.04535   0.00002   0.00000   0.00157   0.00158  -0.04378
   D159       3.07831   0.00000   0.00000   0.00053   0.00050   3.07881
   D160       3.08713   0.00002   0.00000   0.00180   0.00182   3.08895
   D161      -0.07239  -0.00000   0.00000   0.00076   0.00074  -0.07165
   D162       0.04591   0.00003   0.00000   0.00089   0.00090   0.04681
   D163      -3.08684   0.00002   0.00000   0.00056   0.00056  -3.08628
   D164      -3.07571   0.00002   0.00000   0.00047   0.00046  -3.07525
   D165       0.07473   0.00002   0.00000   0.00013   0.00012   0.07485
   D166       3.09324  -0.00004   0.00000  -0.00150  -0.00150   3.09173
   D167      -0.08934  -0.00003   0.00000  -0.00255  -0.00253  -0.09186
   D168      -0.06915  -0.00004   0.00000  -0.00107  -0.00106  -0.07021
   D169       3.03146  -0.00002   0.00000  -0.00211  -0.00208   3.02938
   D170       3.12391   0.00000   0.00000   0.00062   0.00063   3.12453
   D171      -0.00828  -0.00001   0.00000  -0.00009  -0.00009  -0.00837
   D172      -0.02681   0.00001   0.00000   0.00097   0.00098  -0.02583
   D173       3.12419   0.00000   0.00000   0.00025   0.00026   3.12445
   D174      -0.02758  -0.00002   0.00000  -0.00111  -0.00111  -0.02868
   D175      -3.13597  -0.00000   0.00000  -0.00012  -0.00012  -3.13609
   D176       3.10442  -0.00001   0.00000  -0.00038  -0.00037   3.10405
   D177      -0.00397   0.00001   0.00000   0.00061   0.00061  -0.00336
   D178       0.03384  -0.00000   0.00000   0.00013   0.00012   0.03396
   D179      -3.06637   0.00001   0.00000   0.00112   0.00111  -3.06526
   D180      -3.14054  -0.00002   0.00000  -0.00085  -0.00085  -3.14139
   D181       0.04243  -0.00000   0.00000   0.00014   0.00014   0.04257
   D182       0.01546   0.00003   0.00000   0.00095   0.00095   0.01641
   D183      -3.08515   0.00001   0.00000   0.00195   0.00193  -3.08322
   D184       3.11536   0.00001   0.00000  -0.00006  -0.00005   3.11531
   D185       0.01475  -0.00001   0.00000   0.00094   0.00092   0.01568
   D186       2.34526  -0.00004   0.00000   0.00273   0.00269   2.34795
   D187      -0.79858  -0.00001   0.00000   0.00129   0.00126  -0.79732
   D188      -0.83785  -0.00002   0.00000   0.00167   0.00166  -0.83620
   D189       2.30149   0.00000   0.00000   0.00023   0.00023   2.30172
   D190      -0.07323  -0.00019   0.00000  -0.00003  -0.00004  -0.07328
   D191       3.06800  -0.00006   0.00000  -0.00017  -0.00017   3.06783
   D192       3.07049  -0.00022   0.00000   0.00134   0.00131   3.07180
   D193      -0.07146  -0.00008   0.00000   0.00119   0.00118  -0.07028
   D194      -0.00106  -0.00001   0.00000  -0.00039  -0.00037  -0.00143
   D195       3.14156  -0.00001   0.00000  -0.00048  -0.00042   3.14114
   D196       3.14059   0.00000   0.00000   0.00063   0.00061   3.14120
   D197       0.00002  -0.00000   0.00000   0.00055   0.00056   0.00058
         Item               Value     Threshold  Converged?
 Maximum Force            0.000419     0.000450     YES
 RMS     Force            0.000089     0.000300     YES
 Maximum Displacement     0.222621     0.001800     NO 
 RMS     Displacement     0.036473     0.001200     NO 
 Predicted change in Energy=-6.339522D-05
 GradGradGradGradGradGradGradGradGradGradGradGradGradGradGradGradGradGrad

 Stoichiometry    C34H21BrMnN3O3
 Framework group  C1[X(C34H21BrMnN3O3)]
 Deg. of freedom   183
 Full point group                 C1      NOp   1
 Largest Abelian subgroup         C1      NOp   1
 Largest concise Abelian subgroup C1      NOp   1
                         Standard orientation:                         
 ---------------------------------------------------------------------
 Center     Atomic      Atomic             Coordinates (Angstroms)
 Number     Number       Type             X           Y           Z
 ---------------------------------------------------------------------
      1         25           0       -2.003109   -1.443910   -0.494337
      2          6           0       -3.151301   -1.519603   -1.941995
      3          8           0       -3.797671   -1.635477   -2.873663
      4          6           0       -3.142542   -2.508161    0.496150
      5          8           0       -3.789275   -3.236880    1.087908
      6          6           0       -1.155952   -2.898439   -1.097260
      7          7           0       -0.790861   -1.267034    1.260529
      8          6           0       -0.608130   -0.493696    3.518240
      9          6           0        0.774003   -0.646721    3.482106
     10          6           0        0.525530   -1.496986    1.268051
     11          1           0       -1.110997   -0.105947    4.403840
     12          1           0        1.386783   -0.361012    4.339759
     13          7           0       -2.216183    1.247905    0.624964
     14          6           0       -1.702158    2.260119    0.847683
     15          6           0       -0.976063    3.475935    1.086087
     16          6           0        0.388539    3.515595    0.758383
     17          6           0        1.111378    4.683419    0.976190
     18          6           0       -1.612799    4.600407    1.630343
     19          1           0        0.872556    2.630154    0.344302
     20          1           0       -2.673452    4.560336    1.880933
     21          7           0       -0.801714   -0.075920   -1.625369
     22          6           0       -0.638043    2.076444   -2.660062
     23          6           0        0.746410    1.960215   -2.733125
     24          1           0       -1.150664    2.972755   -3.008517
     25          6           0       -1.351965   -0.797534    2.387516
     26          1           0       -2.430710   -0.639214    2.372595
     27          6           0       -1.373480    1.046885   -2.090756
     28          1           0       -2.454657    1.133904   -1.975818
     29          1           0        2.172880    4.717591    0.725335
     30          8           0       -0.586796   -3.817400   -1.479604
     31          6           0        2.923198   -0.225992    0.001733
     32          6           0        5.608838   -0.885328   -0.284234
     33          6           0        1.374160   -1.163895    2.330958
     34          6           0        2.843970   -1.359746    2.220107
     35          6           0        3.539616   -1.993441    3.219538
     36          6           0        4.937005   -2.248607    3.106629
     37          6           0        5.618365   -1.899136    1.976080
     38          6           0        4.945947   -1.240630    0.896944
     39          6           0        3.552213   -0.925392    1.035114
     40          1           0        3.008782   -2.345825    4.106933
     41          1           0        5.451139   -2.755725    3.925172
     42          1           0        6.682588   -2.123422    1.874134
     43          6           0        3.545952    0.033048   -1.221302
     44          6           0        4.940766   -0.281451   -1.356845
     45          6           0        5.607616    0.042356   -2.582030
     46          6           0        4.920790    0.612870   -3.615196
     47          6           0        3.522165    0.864263   -3.506203
     48          6           0        2.830830    0.580737   -2.354617
     49          1           0        6.672268   -0.183047   -2.676662
     50          1           0        5.431195    0.853659   -4.549534
     51          1           0        2.987342    1.254630   -4.375157
     52          6           0        1.358374    0.783270   -2.291675
     53          1           0        1.351726    2.779775   -3.126135
     54          6           0        0.518222   -0.215772   -1.783647
     55          1           0        0.944342   -1.175307   -1.492973
     56          1           0        0.942533   -1.972378    0.380605
     57          6           0        0.479349    5.804538    1.516617
     58          6           0       -0.877044    5.762346    1.842962
     59          1           0       -1.366595    6.641291    2.265623
     60          1           0        1.049784    6.719965    1.686045
     61         35           0       -5.553118   -0.204108   -0.019609
     62          1           0        6.675370   -1.103958   -0.377264
     63          1           0        1.903335    0.115222    0.152608
 ---------------------------------------------------------------------
 Rotational constants (GHZ):           0.0945488           0.0538003           0.0495396
 Basis read from rwf:  (5D, 7F)
 There are   802 symmetry adapted cartesian basis functions of A   symmetry.
 There are   751 symmetry adapted basis functions of A   symmetry.
   751 basis functions,  1339 primitive gaussians,   802 cartesian basis functions
   165 alpha electrons      165 beta electrons
       nuclear repulsion energy      5977.0793293324 Hartrees.
 NAtoms=   63 NActive=   63 NUniq=   63 SFac= 1.00D+00 NAtFMM=   60 NAOKFM=T Big=T
 Integral buffers will be    131072 words long.
 Raffenetti 2 integral format.
 Two-electron integral symmetry is turned on.
 Nuclear repulsion after empirical dispersion term =     5977.0121656193 Hartrees.
 ------------------------------------------------------------------------------
 Polarizable Continuum Model (PCM)
 =================================
 Model                : PCM.
 Atomic radii         : UFF (Universal Force Field).
 Polarization charges : Total charges.
 Charge compensation  : None.
 Solution method      : On-the-fly selection.
 Cavity type          : Scaled VdW (van der Waals Surface) (Alpha=1.100).
 Cavity algorithm     : GePol (No added spheres)
                        Default sphere list used, NSphG=   63.
                        Lebedev-Laikov grids with approx.  5.0 points / Ang**2.
                        Smoothing algorithm: York/Karplus (Gamma=1.0000).
                        Polarization charges: spherical gaussians, with
                                              point-specific exponents (IZeta= 3).
                        Self-potential: point-specific (ISelfS= 7).
                        Self-field    : sphere-specific E.n sum rule (ISelfD= 2).
 1st derivatives      : Analytical E(r).r(x)/FMM algorithm (CHGder, D1EAlg=3).
                        Cavity 1st derivative terms included.
 Solvent              : TetraHydroFuran, Eps=   7.425700 Eps(inf)=   1.974025
 ------------------------------------------------------------------------------
 One-electron integrals computed using PRISM.
 PrsmSu:  requested number of processors reduced to:  11 ShMem   1 Linda.
 NBasis=   751 RedAO= T EigKep=  2.23D-04  NBF=   751
 NBsUse=   751 1.00D-06 EigRej= -1.00D+00 NBFU=   751
 Initial guess from the checkpoint file:  "checkpoint.chk"
 B after Tr=    -0.000000   -0.000000   -0.000000
         Rot=    0.999961    0.006956   -0.000844    0.005457 Ang=   1.02 deg.
 ExpMin= 3.93D-02 ExpMax= 2.77D+05 ExpMxC= 1.70D+04 IAcc=3 IRadAn=         5 AccDes= 0.00D+00
 Harris functional with IExCor= 4639 and IRadAn=       5 diagonalized for initial guess.
 HarFok:  IExCor= 4639 AccDes= 0.00D+00 IRadAn=         5 IDoV= 1 UseB2=F ITyADJ=14
 ICtDFT=  3500011 ScaDFX=  1.000000  1.000000  1.000000  1.000000
 FoFCou: FMM=F IPFlag=           0 FMFlag=      100000 FMFlg1=        2001
         NFxFlg=           0 DoJE=T BraDBF=F KetDBF=T FulRan=T
         wScrn=  0.000000 ICntrl=       500 IOpCl=  0 I1Cent=   200000004 NGrid=           0
         NMat0=    1 NMatS0=      1 NMatT0=    0 NMatD0=    1 NMtDS0=    0 NMtDT0=    0
 Petite list used in FoFCou.
 Requested convergence on RMS density matrix=1.00D-08 within 128 cycles.
 Requested convergence on MAX density matrix=1.00D-06.
 Requested convergence on             energy=1.00D-06.
 No special actions if energy rises.
 CoulSu:  requested number of processors reduced to:   9 ShMem   1 Linda.
 Inv3:  Mode=1 IEnd=    68144268.
 Iteration    1 A*A^-1 deviation from unit magnitude is 3.11D-15 for    369.
 Iteration    1 A*A^-1 deviation from orthogonality  is 2.26D-15 for   3874   3803.
 Iteration    1 A^-1*A deviation from unit magnitude is 3.11D-15 for   1443.
 Iteration    1 A^-1*A deviation from orthogonality  is 2.47D-15 for   2173    186.
 CoulSu:  requested number of processors reduced to:   9 ShMem   1 Linda.
 CoulSu:  requested number of processors reduced to:   9 ShMem   1 Linda.
