 Entering Gaussian System, Link 0=g16
 Initial command:
 /home1/apps/gaussian/16rA.03/g16/l1.exe "/tmp/Gau-28936.inp" -scrdir="/tmp/"
 Entering Link 1 = /home1/apps/gaussian/16rA.03/g16/l1.exe PID=     28938.
  
 Copyright (c) 1988,1990,1992,1993,1995,1998,2003,2009,2016,
            Gaussian, Inc.  All Rights Reserved.
  
 This is part of the Gaussian(R) 16 program.  It is based on
 the Gaussian(R) 09 system (copyright 2009, Gaussian, Inc.),
 the Gaussian(R) 03 system (copyright 2003, Gaussian, Inc.),
 the Gaussian(R) 98 system (copyright 1998, Gaussian, Inc.),
 the Gaussian(R) 94 system (copyright 1995, Gaussian, Inc.),
 the Gaussian 92(TM) system (copyright 1992, Gaussian, Inc.),
 the Gaussian 90(TM) system (copyright 1990, Gaussian, Inc.),
 the Gaussian 88(TM) system (copyright 1988, Gaussian, Inc.),
 the Gaussian 86(TM) system (copyright 1986, Carnegie Mellon
 University), and the Gaussian 82(TM) system (copyright 1983,
 Carnegie Mellon University). Gaussian is a federally registered
 trademark of Gaussian, Inc.
  
 This software contains proprietary and confidential information,
 including trade secrets, belonging to Gaussian, Inc.
  
 This software is provided under written license and may be
 used, copied, transmitted, or stored only in accord with that
 written license.
  
 The following legend is applicable only to US Government
 contracts under FAR:
  
                    RESTRICTED RIGHTS LEGEND
  
 Use, reproduction and disclosure by the US Government is
 subject to restrictions as set forth in subparagraphs (a)
 and (c) of the Commercial Computer Software - Restricted
 Rights clause in FAR 52.227-19.
  
 Gaussian, Inc.
 340 Quinnipiac St., Bldg. 40, Wallingford CT 06492
  
  
 ---------------------------------------------------------------
 Warning -- This program may not be used in any manner that
 competes with the business of Gaussian, Inc. or will provide
 assistance to any competitor of Gaussian, Inc.  The licensee
 of this program is prohibited from giving any competitor of
 Gaussian, Inc. access to this program.  By using this program,
 the user acknowledges that Gaussian, Inc. is engaged in the
 business of creating and licensing software in the field of
 computational chemistry and represents and warrants to the
 licensee that it is not a competitor of Gaussian, Inc. and that
 it will not use this program in any manner prohibited above.
 ---------------------------------------------------------------
  

 Cite this work as:
 Gaussian 16, Revision A.03,
 M. J. Frisch, G. W. Trucks, H. B. Schlegel, G. E. Scuseria, 
 M. A. Robb, J. R. Cheeseman, G. Scalmani, V. Barone, 
 G. A. Petersson, H. Nakatsuji, X. Li, M. Caricato, A. V. Marenich, 
 J. Bloino, B. G. Janesko, R. Gomperts, B. Mennucci, H. P. Hratchian, 
 J. V. Ortiz, A. F. Izmaylov, J. L. Sonnenberg, D. Williams-Young, 
 F. Ding, F. Lipparini, F. Egidi, J. Goings, B. Peng, A. Petrone, 
 T. Henderson, D. Ranasinghe, V. G. Zakrzewski, J. Gao, N. Rega, 
 G. Zheng, W. Liang, M. Hada, M. Ehara, K. Toyota, R. Fukuda, 
 J. Hasegawa, M. Ishida, T. Nakajima, Y. Honda, O. Kitao, H. Nakai, 
 T. Vreven, K. Throssell, J. A. Montgomery, Jr., J. E. Peralta, 
 F. Ogliaro, M. J. Bearpark, J. J. Heyd, E. N. Brothers, K. N. Kudin, 
 V. N. Staroverov, T. A. Keith, R. Kobayashi, J. Normand, 
 K. Raghavachari, A. P. Rendell, J. C. Burant, S. S. Iyengar, 
 J. Tomasi, M. Cossi, J. M. Millam, M. Klene, C. Adamo, R. Cammi, 
 J. W. Ochterski, R. L. Martin, K. Morokuma, O. Farkas, 
 J. B. Foresman, and D. J. Fox, Gaussian, Inc., Wallingford CT, 2016.
 
 ******************************************
 Gaussian 16:  ES64L-G16RevA.03 25-Dec-2016
                30-Sep-2022 
 ******************************************
 %NProcShared=24
 Will use up to   24 processors via shared memory.
 %Chk=checkpoint.chk
 -------------------------------------------------------
 # wB97XD Gen Opt=Restart SCRF=(Solvent=TetraHydroFuran)
 -------------------------------------------------------
 1/18=20,19=15,26=3,35=1/3(2);
 2/9=110/2;
 99//99;
 2/9=110/2;
 3/5=7,6=1,11=2,25=1,30=1,70=2205,71=1,72=20,74=-58,82=7/1,2,3;
 4/5=5,16=3,69=1/1;
 5/5=2,38=5,53=20/2;
 7//1,2,3,16;
 1/18=20,19=15,26=3/3(-5);
 2/9=110/2;
 6/7=2,8=2,9=2,10=2,19=2,28=1/1;
 99/9=1/99;

 GradGradGradGradGradGradGradGradGradGradGradGradGradGradGradGradGradGrad
 Berny optimization.
 Restoring state from the checkpoint file "checkpoint.chk".
 ONIOM results not found on unit 2.
 Title:  Mn Reactant Geometry Optimization
 Route:  # wB97XD Gen Opt SCRF=(Solvent=TetraHydroFuran)
 Using GEDIIS/GDIIS optimizer.
 FormGI is forming the generalized inverse of G from B-inverse, IUseBI=4.
 Internal  Forces:  Max     0.000482583 RMS     0.000103656
 Search for a local minimum.
 Step number 281 out of a maximum of  356
 All quantities printed in internal units (Hartrees-Bohrs-Radians)
 Mixed Optimization -- En-DIIS/RFO-DIIS
 Swapping is turned off.
 Update second derivatives using D2CorX and points  182  183  184  185  186
                                                    187  188  189  190  191
                                                    192  193  194  195  196
                                                    197  198  199  200  201
                                                    202  203  204  205  206
                                                    207  208  210  211  212
                                                    213  214  215  216  217
                                                    218  219  220  221  222
                                                    223  224  225  226  227
                                                    228  229  230  231  232
                                                    233  234  235  236  237
                                                    238  239  240  241  242
                                                    243  244  245  246  247
                                                    248  249  250  251  252
                                                    253  254  255  256  257
                                                    258  259  260  262  261
                                                    263  209  264  265  266
                                                    267  268  269  270  271
                                                    272  273  274  275  276
                                                    277  279  280  281
 DE= -6.06D-07 DEPred=-3.62D-09 R= 1.67D+02
 Trust test= 1.67D+02 RLast= 9.09D-03 DXMaxT set to 7.07D-02
 ITU=  0  1 -1  1  1 -1 -1  1 -1 -1 -1 -1 -1 -1 -1  1 -1  0  0  0
 ITU= -1 -1  1  1 -1  1 -1 -1  1  1 -1  1 -1  1 -1 -1 -1  1 -1 -1
 ITU= -1 -1  0 -1  1 -1 -1  0 -1 -1 -1  1  1 -1  1 -1 -1 -1 -1 -1
 ITU= -1  1 -1  1 -1 -1  1  1  1 -1  1 -1  1  1  1 -1 -1  1 -1 -1
 ITU=  1  1 -1 -1  1  1  1 -1 -1  1  1 -1  1  1 -1 -1  1  1  1  1
     Eigenvalues ---    0.00003   0.00073   0.00136   0.00142   0.00225
     Eigenvalues ---    0.00364   0.00562   0.00620   0.00827   0.00979
     Eigenvalues ---    0.01022   0.01161   0.01263   0.01361   0.01460
     Eigenvalues ---    0.01482   0.01563   0.01600   0.01671   0.01762
     Eigenvalues ---    0.01812   0.01842   0.01891   0.01903   0.01959
     Eigenvalues ---    0.01972   0.01999   0.02043   0.02079   0.02085
     Eigenvalues ---    0.02119   0.02128   0.02139   0.02159   0.02168
     Eigenvalues ---    0.02180   0.02190   0.02208   0.02223   0.02234
     Eigenvalues ---    0.02269   0.02306   0.02424   0.02452   0.02671
     Eigenvalues ---    0.02785   0.02940   0.03018   0.03237   0.03617
     Eigenvalues ---    0.04320   0.04480   0.04625   0.05335   0.05615
     Eigenvalues ---    0.05861   0.06188   0.06600   0.06726   0.06964
     Eigenvalues ---    0.07872   0.08249   0.08742   0.09072   0.10003
     Eigenvalues ---    0.10173   0.11020   0.11360   0.11953   0.12722
     Eigenvalues ---    0.12842   0.13771   0.14234   0.14690   0.15000
     Eigenvalues ---    0.15205   0.15651   0.15700   0.15760   0.15888
     Eigenvalues ---    0.15921   0.15945   0.15962   0.16003   0.16016
     Eigenvalues ---    0.16083   0.16243   0.16756   0.16877   0.17484
     Eigenvalues ---    0.18178   0.19128   0.19954   0.20328   0.20740
     Eigenvalues ---    0.20928   0.21326   0.21515   0.21765   0.21874
     Eigenvalues ---    0.22053   0.22152   0.22241   0.22423   0.22751
     Eigenvalues ---    0.23048   0.23308   0.23711   0.23956   0.23988
     Eigenvalues ---    0.24473   0.25134   0.25433   0.26462   0.26718
     Eigenvalues ---    0.27037   0.27497   0.30330   0.31633   0.32904
     Eigenvalues ---    0.33827   0.34091   0.34233   0.34347   0.34541
     Eigenvalues ---    0.34576   0.34613   0.34639   0.34659   0.34668
     Eigenvalues ---    0.34691   0.34724   0.34799   0.34827   0.34840
     Eigenvalues ---    0.35051   0.35274   0.35753   0.36173   0.37320
     Eigenvalues ---    0.37700   0.39596   0.40048   0.40724   0.41094
     Eigenvalues ---    0.42055   0.42174   0.42527   0.43217   0.43505
     Eigenvalues ---    0.43769   0.44461   0.45086   0.45196   0.45625
     Eigenvalues ---    0.45934   0.45948   0.46297   0.46544   0.46711
     Eigenvalues ---    0.47117   0.47405   0.48121   0.48485   0.49084
     Eigenvalues ---    0.49871   0.52714   0.54612   0.57668   0.60957
     Eigenvalues ---    1.24915   1.27383   1.36531   1.39605
 Eigenvalue     1 is   2.54D-05 Eigenvector:
                          D1        D7        D3        D5        D2
   1                   -0.41895  -0.41132  -0.40916  -0.38578  -0.22510
                          D8        D4        D6        D71       D72
   1                   -0.21747  -0.21531  -0.19193  -0.10376  -0.08587
 En-DIIS/RFO-DIIS/Sim-DIIS IScMMF=       -3 using points:   281  280  279  278  277  276  275  274  273  272
 RFO step:  Lambda=-6.25275051D-05.
 DIIS inversion failure, remove point  10.
 DIIS inversion failure, remove point   9.
 DIIS inversion failure, remove point   8.
 DIIS inversion failure, remove point   7.
 DIIS inversion failure, remove point   6.
 DIIS inversion failure, remove point   5.
 DIIS inversion failure, remove point   4.
 RFO-DIIS uses    2 points instead of   10
 EnCoef did   100 forward-backward iterations
 EnCoef did   100 forward-backward iterations
 EnCoef did   100 forward-backward iterations
 EnCoef did   100 forward-backward iterations
 EnCoef did   100 forward-backward iterations
 EnCoef did   100 forward-backward iterations
 EnCoef did     1 forward-backward iterations
 DidBck=T Rises=T En-DIIS coefs:    0.94381    0.05619    0.00000    0.00000    0.00000
                  En-DIIS coefs:    0.00000    0.00000    0.00000    0.00000    0.00000
 Iteration  1 RMS(Cart)=  0.00009168 RMS(Int)=  0.00000000
 Iteration  2 RMS(Cart)=  0.00000001 RMS(Int)=  0.00000000
 Variable       Old X    -DE/DX   Delta X   Delta X   Delta X     New X
                                 (Linear)    (Quad)   (Total)
    R1        3.46695   0.00010  -0.00000   0.00000  -0.00000   3.46695
    R2        3.44656   0.00010  -0.00001   0.00000  -0.00001   3.44654
    R3        3.46456  -0.00011   0.00001   0.00000   0.00001   3.46457
    R4        3.83368   0.00005  -0.00001   0.00000  -0.00001   3.83367
    R5        4.06896  -0.00005   0.00001   0.00000   0.00001   4.06896
    R6        4.08762   0.00012  -0.00000   0.00000  -0.00000   4.08762
    R7        2.15565   0.00000   0.00000   0.00000   0.00000   2.15565
    R8        2.16189  -0.00038   0.00000   0.00000   0.00000   2.16189
    R9        2.15600   0.00019   0.00000   0.00000   0.00000   2.15600
   R10        2.18248   0.00028  -0.00000   0.00000  -0.00000   2.18248
   R11        2.54066   0.00028  -0.00000   0.00000  -0.00000   2.54066
   R12        2.51876   0.00036  -0.00000   0.00000  -0.00000   2.51876
   R13        2.52358  -0.00005   0.00001   0.00000   0.00001   2.52359
   R14        2.54139   0.00007  -0.00000   0.00000  -0.00000   2.54138
   R15        2.62307  -0.00010  -0.00000   0.00000  -0.00000   2.62307
   R16        2.06162  -0.00014   0.00000   0.00000   0.00000   2.06162
   R17        2.63411   0.00005  -0.00000   0.00000  -0.00000   2.63411
   R18        2.05990   0.00000   0.00000   0.00000   0.00000   2.05990
   R19        2.63420  -0.00010   0.00000   0.00000   0.00000   2.63420
   R20        2.06331   0.00006   0.00000   0.00000   0.00000   2.06331
   R21        2.63421  -0.00007   0.00001   0.00000   0.00001   2.63422
   R22        2.81552  -0.00032   0.00001   0.00000   0.00001   2.81553
   R23        2.04848  -0.00002   0.00000   0.00000   0.00000   2.04849
   R24        2.63353  -0.00000  -0.00000   0.00000  -0.00000   2.63353
   R25        2.05264  -0.00002  -0.00000   0.00000  -0.00000   2.05263
   R26        2.63164   0.00015  -0.00000   0.00000  -0.00000   2.63164
   R27        2.81630  -0.00004   0.00000   0.00000   0.00000   2.81631
   R28        2.62316   0.00003   0.00000   0.00000   0.00000   2.62316
   R29        2.05926  -0.00005   0.00000   0.00000   0.00000   2.05926
   R30        2.63274  -0.00004   0.00000   0.00000   0.00000   2.63274
   R31        2.05998  -0.00000  -0.00000   0.00000  -0.00000   2.05998
   R32        2.06300   0.00000   0.00000   0.00000   0.00000   2.06300
   R33        2.66010  -0.00006   0.00000   0.00000   0.00000   2.66011
   R34        2.64036   0.00002   0.00000   0.00000   0.00000   2.64036
   R35        2.66252   0.00005  -0.00000   0.00000  -0.00000   2.66252
   R36        2.64458  -0.00007  -0.00000   0.00000  -0.00000   2.64458
   R37        2.65017   0.00006  -0.00000   0.00000  -0.00000   2.65017
   R38        3.36363   0.00009  -0.00001   0.00000  -0.00001   3.36362
   R39        2.64684   0.00006   0.00000   0.00000   0.00000   2.64685
   R40        3.36630  -0.00006  -0.00000   0.00000  -0.00000   3.36630
   R41        2.63973   0.00010  -0.00000   0.00000  -0.00000   2.63973
   R42        3.35588  -0.00006  -0.00000   0.00000  -0.00000   3.35588
   R43        2.64000   0.00010  -0.00000   0.00000  -0.00000   2.64000
   R44        3.35486   0.00007  -0.00000   0.00000  -0.00000   3.35486
   R45        2.63298  -0.00000   0.00000   0.00000   0.00000   2.63298
   R46        2.06319  -0.00002   0.00000   0.00000   0.00000   2.06319
   R47        2.63060   0.00002   0.00000   0.00000   0.00000   2.63060
   R48        2.06316   0.00006  -0.00000   0.00000  -0.00000   2.06316
   R49        2.62923  -0.00003   0.00000   0.00000   0.00000   2.62923
   R50        2.06201  -0.00002   0.00000   0.00000   0.00000   2.06201
   R51        2.63048  -0.00013  -0.00000   0.00000  -0.00000   2.63048
   R52        2.06211   0.00001  -0.00000   0.00000  -0.00000   2.06211
   R53        2.06300   0.00002   0.00000   0.00000   0.00000   2.06300
   R54        2.06306   0.00000   0.00000   0.00000   0.00000   2.06306
   R55        2.70675  -0.00043  -0.00000   0.00000  -0.00000   2.70674
   R56        2.64923  -0.00004  -0.00000   0.00000  -0.00000   2.64923
   R57        2.65749  -0.00019  -0.00000   0.00000  -0.00000   2.65749
   R58        2.62866   0.00004   0.00000   0.00000   0.00000   2.62866
   R59        2.06139  -0.00007   0.00000   0.00000   0.00000   2.06139
   R60        2.62480   0.00009  -0.00000   0.00000  -0.00000   2.62480
   R61        2.06186   0.00017  -0.00001   0.00000  -0.00001   2.06185
   R62        2.63881  -0.00016  -0.00000   0.00000  -0.00000   2.63880
   R63        2.06175  -0.00004  -0.00000   0.00000  -0.00000   2.06175
   R64        2.63868  -0.00013   0.00000   0.00000   0.00000   2.63868
   R65        2.06254  -0.00004  -0.00000   0.00000  -0.00000   2.06253
   R66        2.06290  -0.00000  -0.00000   0.00000  -0.00000   2.06290
    A1        1.57963  -0.00006  -0.00002   0.00000  -0.00002   1.57961
    A2        1.62306   0.00006  -0.00000   0.00000  -0.00000   1.62306
    A3        1.57433  -0.00009  -0.00001   0.00000  -0.00001   1.57433
    A4        1.57159   0.00020   0.00002   0.00000   0.00002   1.57161
    A5        1.56164   0.00007  -0.00002   0.00000  -0.00002   1.56162
    A6        1.60775  -0.00014   0.00003   0.00000   0.00003   1.60778
    A7        1.61131  -0.00001   0.00002   0.00000   0.00002   1.61133
    A8        1.54388   0.00003  -0.00000   0.00000  -0.00000   1.54388
    A9        1.58299  -0.00018   0.00001   0.00000   0.00001   1.58299
   A10        1.52381   0.00027  -0.00001   0.00000  -0.00001   1.52380
   A11        1.56575  -0.00008   0.00000   0.00000   0.00000   1.56576
   A12        1.50419  -0.00007  -0.00002   0.00000  -0.00002   1.50417
   A13        2.14546   0.00002  -0.00002   0.00000  -0.00002   2.14544
   A14        2.09206   0.00004   0.00002   0.00000   0.00002   2.09208
   A15        2.04525  -0.00005  -0.00000   0.00000  -0.00000   2.04525
   A16        2.10811   0.00002   0.00000   0.00000   0.00000   2.10812
   A17        2.12998   0.00002  -0.00000   0.00000  -0.00000   2.12998
   A18        2.04001  -0.00005  -0.00000   0.00000  -0.00000   2.04000
   A19        2.13974  -0.00001   0.00000   0.00000   0.00000   2.13974
   A20        2.04566   0.00005  -0.00000   0.00000  -0.00000   2.04565
   A21        2.09774  -0.00004  -0.00000   0.00000  -0.00000   2.09774
   A22        2.08551   0.00002   0.00000   0.00000   0.00000   2.08551
   A23        2.08420  -0.00002  -0.00000   0.00000  -0.00000   2.08420
   A24        2.11346  -0.00001  -0.00000   0.00000  -0.00000   2.11346
   A25        2.06866   0.00003  -0.00000   0.00000  -0.00000   2.06866
   A26        2.10833  -0.00000  -0.00000   0.00000  -0.00000   2.10833
   A27        2.10619  -0.00003   0.00001   0.00000   0.00001   2.10620
   A28        2.04909   0.00012   0.00000   0.00000   0.00000   2.04909
   A29        2.16709  -0.00002   0.00001   0.00000   0.00001   2.16710
   A30        2.06423  -0.00009  -0.00001   0.00000  -0.00001   2.06423
   A31        2.17803  -0.00011  -0.00000   0.00000  -0.00000   2.17803
   A32        2.04025   0.00014  -0.00001   0.00000  -0.00001   2.04024
   A33        2.06473  -0.00003   0.00001   0.00000   0.00001   2.06474
   A34        2.17384   0.00004   0.00000   0.00000   0.00000   2.17384
   A35        2.04715   0.00005   0.00001   0.00000   0.00001   2.04716
   A36        2.06215  -0.00009  -0.00001   0.00000  -0.00001   2.06214
   A37        2.05614   0.00000   0.00000   0.00000   0.00000   2.05614
   A38        2.05287  -0.00005   0.00001   0.00000   0.00001   2.05288
   A39        2.17378   0.00004  -0.00001   0.00000  -0.00001   2.17377
   A40        2.14496   0.00004   0.00000   0.00000   0.00000   2.14497
   A41        2.04844   0.00000   0.00000   0.00000   0.00000   2.04844
   A42        2.08978  -0.00004  -0.00000   0.00000  -0.00000   2.08978
   A43        2.08477   0.00001   0.00000   0.00000   0.00000   2.08477
   A44        2.08331  -0.00003   0.00000   0.00000   0.00000   2.08331
   A45        2.11486   0.00002  -0.00000   0.00000  -0.00000   2.11486
   A46        2.06431  -0.00004  -0.00000   0.00000  -0.00000   2.06431
   A47        2.10711   0.00003  -0.00000   0.00000  -0.00000   2.10711
   A48        2.11165   0.00002   0.00000   0.00000   0.00000   2.11165
   A49        2.09576  -0.00006  -0.00000   0.00000  -0.00000   2.09576
   A50        2.10678   0.00007   0.00000   0.00000   0.00000   2.10678
   A51        2.07957  -0.00001  -0.00000   0.00000  -0.00000   2.07957
   A52        2.13612   0.00003  -0.00000   0.00000  -0.00000   2.13612
   A53        2.07133  -0.00017   0.00001   0.00000   0.00001   2.07133
   A54        2.07399   0.00013  -0.00000   0.00000  -0.00000   2.07398
   A55        2.09295  -0.00014   0.00001   0.00000   0.00001   2.09296
   A56        2.10107   0.00003  -0.00001   0.00000  -0.00001   2.10106
   A57        2.08750   0.00011   0.00001   0.00000   0.00001   2.08751
   A58        2.09477  -0.00003  -0.00000   0.00000  -0.00000   2.09477
   A59        2.09361  -0.00003   0.00000   0.00000   0.00000   2.09362
   A60        2.09366   0.00006  -0.00000   0.00000  -0.00000   2.09366
   A61        2.09966   0.00002  -0.00000   0.00000  -0.00000   2.09966
   A62        2.11289   0.00002  -0.00000   0.00000  -0.00000   2.11289
   A63        2.06991  -0.00004   0.00000   0.00000   0.00000   2.06991
   A64        2.09577   0.00001   0.00000   0.00000   0.00000   2.09577
   A65        2.10775   0.00007   0.00000   0.00000   0.00000   2.10775
   A66        2.07888  -0.00008  -0.00000   0.00000  -0.00000   2.07887
   A67        2.10444   0.00005   0.00000   0.00000   0.00000   2.10444
   A68        2.07989  -0.00001   0.00000   0.00000   0.00000   2.07989
   A69        2.09856  -0.00004  -0.00000   0.00000  -0.00000   2.09856
   A70        2.11121  -0.00002  -0.00000   0.00000  -0.00000   2.11121
   A71        2.07830  -0.00011   0.00001   0.00000   0.00001   2.07831
   A72        2.09310   0.00013  -0.00001   0.00000  -0.00001   2.09309
   A73        2.09629  -0.00003   0.00000   0.00000   0.00000   2.09629
   A74        2.09440  -0.00001   0.00000   0.00000   0.00000   2.09440
   A75        2.09222   0.00003  -0.00000   0.00000  -0.00000   2.09221
   A76        2.09864  -0.00001   0.00000   0.00000   0.00000   2.09864
   A77        2.09384   0.00001  -0.00000   0.00000  -0.00000   2.09384
   A78        2.09051  -0.00000  -0.00000   0.00000  -0.00000   2.09051
   A79        2.09179  -0.00000  -0.00000   0.00000  -0.00000   2.09179
   A80        2.08856   0.00003   0.00000   0.00000   0.00000   2.08856
   A81        2.10279  -0.00003   0.00000   0.00000   0.00000   2.10279
   A82        2.09054   0.00003  -0.00000   0.00000  -0.00000   2.09054
   A83        2.08886  -0.00005   0.00000   0.00000   0.00000   2.08886
   A84        2.10371   0.00002  -0.00000   0.00000  -0.00000   2.10371
   A85        1.76498  -0.00024   0.00001   0.00000   0.00001   1.76499
   A86        1.77017  -0.00018   0.00000   0.00000   0.00000   1.77017
   A87        2.11847   0.00004   0.00000   0.00000   0.00000   2.11848
   A88        2.05383  -0.00002  -0.00000   0.00000  -0.00000   2.05383
   A89        2.11082  -0.00002   0.00000   0.00000   0.00000   2.11083
   A90        2.07632  -0.00002  -0.00000   0.00000  -0.00000   2.07631
   A91        2.09848   0.00006  -0.00000   0.00000  -0.00000   2.09848
   A92        2.10839  -0.00004   0.00000   0.00000   0.00000   2.10839
   A93        2.08342   0.00001  -0.00000   0.00000  -0.00000   2.08342
   A94        2.10849  -0.00005  -0.00001   0.00000  -0.00001   2.10848
   A95        2.09128   0.00004   0.00001   0.00000   0.00001   2.09129
   A96        2.09904   0.00005  -0.00000   0.00000  -0.00000   2.09904
   A97        2.08770   0.00000  -0.00000   0.00000  -0.00000   2.08770
   A98        2.09644  -0.00005   0.00000   0.00000   0.00000   2.09644
   A99        2.09181   0.00002   0.00000   0.00000   0.00000   2.09181
   A100       2.08567  -0.00002   0.00000   0.00000   0.00000   2.08567
   A101       2.10570   0.00000  -0.00000   0.00000  -0.00000   2.10570
   A102       2.10493  -0.00004   0.00000   0.00000   0.00000   2.10494
   A103       2.08881   0.00000   0.00000   0.00000   0.00000   2.08881
   A104       2.08944   0.00004  -0.00000   0.00000  -0.00000   2.08944
   A105       3.18737  -0.00019   0.00001   0.00000   0.00001   3.18739
   A106       3.15396  -0.00015  -0.00003   0.00000  -0.00003   3.15393
   A107       3.19466   0.00026   0.00002   0.00000   0.00002   3.19467
   A108       3.12763  -0.00004  -0.00001   0.00000  -0.00001   3.12762
   A109       3.16032  -0.00041   0.00000   0.00000   0.00000   3.16033
   A110       3.13139   0.00048  -0.00003   0.00000  -0.00003   3.13136
   A111       3.04933   0.00048  -0.00003   0.00000  -0.00003   3.04930
   A112       3.03204  -0.00039  -0.00000   0.00000  -0.00000   3.03204
   A113       3.20564  -0.00012   0.00000   0.00000   0.00000   3.20565
   A114       3.17707  -0.00009   0.00002   0.00000   0.00002   3.17709
   A115       3.17340   0.00006   0.00000   0.00000   0.00000   3.17340
   A116       3.13676  -0.00015   0.00003   0.00000   0.00003   3.13679
   A117       3.19568  -0.00025   0.00004   0.00000   0.00004   3.19572
   A118       3.14752  -0.00011   0.00002   0.00000   0.00002   3.14754
   A119       3.18793   0.00018  -0.00000   0.00000  -0.00000   3.18793
   A120       3.08176   0.00006   0.00000   0.00000   0.00000   3.08176
    D1       -0.71544   0.00012  -0.00017   0.00000  -0.00017  -0.71561
    D2        2.40869  -0.00024  -0.00008   0.00000  -0.00008   2.40861
    D3        0.90995   0.00019  -0.00018   0.00000  -0.00018   0.90977
    D4       -2.24911  -0.00017  -0.00008   0.00000  -0.00008  -2.24919
    D5        2.48958  -0.00001  -0.00017   0.00000  -0.00017   2.48941
    D6       -0.66948  -0.00036  -0.00008   0.00000  -0.00008  -0.66955
    D7       -2.28209  -0.00008  -0.00019   0.00000  -0.00019  -2.28228
    D8        0.84204  -0.00043  -0.00010   0.00000  -0.00010   0.84194
    D9        0.48990   0.00002  -0.00003   0.00000  -0.00003   0.48987
   D10       -2.68366   0.00005  -0.00005   0.00000  -0.00005  -2.68371
   D11       -1.07218  -0.00004  -0.00002   0.00000  -0.00002  -1.07220
   D12        2.03744  -0.00001  -0.00003   0.00000  -0.00003   2.03741
   D13       -2.61546  -0.00008  -0.00001   0.00000  -0.00001  -2.61547
   D14        0.49417  -0.00005  -0.00003   0.00000  -0.00003   0.49414
   D15        2.09886   0.00002  -0.00002   0.00000  -0.00002   2.09884
   D16       -1.07471   0.00005  -0.00003   0.00000  -0.00003  -1.07474
   D17       -1.81784  -0.00014   0.00003   0.00000   0.00003  -1.81782
   D18        1.43532  -0.00008   0.00007   0.00000   0.00007   1.43539
   D19        2.88568  -0.00009   0.00004   0.00000   0.00004   2.88572
   D20       -0.14435  -0.00004   0.00009   0.00000   0.00009  -0.14426
   D21       -0.24351  -0.00024   0.00002   0.00000   0.00002  -0.24349
   D22        3.00965  -0.00018   0.00006   0.00000   0.00006   3.00971
   D23        1.28052   0.00004   0.00001   0.00000   0.00001   1.28054
   D24       -1.74950   0.00010   0.00006   0.00000   0.00006  -1.74944
   D25        3.10576   0.00000  -0.00001   0.00000  -0.00001   3.10574
   D26       -0.02533  -0.00001  -0.00003   0.00000  -0.00003  -0.02535
   D27       -0.00467  -0.00003  -0.00000   0.00000  -0.00000  -0.00467
   D28       -3.13575  -0.00004  -0.00001   0.00000  -0.00001  -3.13577
   D29       -3.09912  -0.00003   0.00002   0.00000   0.00002  -3.09909
   D30        0.02225   0.00000   0.00002   0.00000   0.00002   0.02227
   D31        0.01231   0.00000   0.00001   0.00000   0.00001   0.01232
   D32        3.13368   0.00003   0.00000   0.00000   0.00000   3.13368
   D33       -2.96693  -0.00001   0.00005   0.00000   0.00005  -2.96688
   D34        0.16460   0.00002   0.00004   0.00000   0.00004   0.16465
   D35        0.06865  -0.00006   0.00001   0.00000   0.00001   0.06866
   D36       -3.08300  -0.00003  -0.00000   0.00000  -0.00000  -3.08300
   D37        3.01704   0.00003  -0.00004   0.00000  -0.00004   3.01701
   D38       -0.12610   0.00004  -0.00003   0.00000  -0.00003  -0.12612
   D39       -0.01710   0.00009   0.00000   0.00000   0.00000  -0.01710
   D40        3.12294   0.00009   0.00002   0.00000   0.00002   3.12296
   D41       -0.00675   0.00000  -0.00000   0.00000  -0.00000  -0.00675
   D42        3.14105   0.00002  -0.00003   0.00000  -0.00003   3.14102
   D43        3.12403   0.00002   0.00001   0.00000   0.00001   3.12404
   D44       -0.01136   0.00004  -0.00001   0.00000  -0.00001  -0.01137
   D45        0.01091   0.00004  -0.00000   0.00000  -0.00000   0.01091
   D46       -3.13217   0.00003  -0.00003   0.00000  -0.00003  -3.13219
   D47       -3.13699   0.00002   0.00002   0.00000   0.00002  -3.13697
   D48        0.00311   0.00001  -0.00000   0.00000  -0.00000   0.00311
   D49       -0.00405  -0.00006   0.00001   0.00000   0.00001  -0.00403
   D50       -3.06424  -0.00005  -0.00002   0.00000  -0.00002  -3.06426
   D51        3.13903  -0.00005   0.00003   0.00000   0.00003   3.13907
   D52        0.07884  -0.00004   0.00001   0.00000   0.00001   0.07884
   D53       -0.00797   0.00004  -0.00001   0.00000  -0.00001  -0.00799
   D54       -3.12908   0.00001  -0.00001   0.00000  -0.00001  -3.12909
   D55        3.05716   0.00004   0.00001   0.00000   0.00001   3.05717
   D56       -0.06395   0.00001   0.00002   0.00000   0.00002  -0.06393
   D57       -2.18352  -0.00002   0.00005   0.00000   0.00005  -2.18348
   D58        1.02244   0.00002   0.00004   0.00000   0.00004   1.02248
   D59        1.04012  -0.00002   0.00002   0.00000   0.00002   1.04014
   D60       -2.03711   0.00002   0.00002   0.00000   0.00002  -2.03709
   D61       -0.07060   0.00001  -0.00001   0.00000  -0.00001  -0.07061
   D62        3.04212  -0.00003  -0.00003   0.00000  -0.00003   3.04209
   D63        3.08113  -0.00002  -0.00001   0.00000  -0.00001   3.08112
   D64       -0.08933  -0.00007  -0.00002   0.00000  -0.00002  -0.08935
   D65        0.01943   0.00001   0.00001   0.00000   0.00001   0.01944
   D66       -3.13802   0.00003   0.00000   0.00000   0.00000  -3.13802
   D67       -3.09111   0.00006   0.00002   0.00000   0.00002  -3.09108
   D68        0.03463   0.00008   0.00002   0.00000   0.00002   0.03465
   D69       -1.29009  -0.00015  -0.00004   0.00000  -0.00004  -1.29014
   D70        1.80128  -0.00007  -0.00006   0.00000  -0.00006   1.80122
   D71        1.82049  -0.00020  -0.00006   0.00000  -0.00006   1.82044
   D72       -1.37132  -0.00012  -0.00007   0.00000  -0.00007  -1.37139
   D73       -0.02929  -0.00006  -0.00001   0.00000  -0.00001  -0.02929
   D74        3.13565  -0.00006   0.00000   0.00000   0.00000   3.13565
   D75        3.11389  -0.00006  -0.00002   0.00000  -0.00002   3.11387
   D76       -0.00436  -0.00006  -0.00001   0.00000  -0.00001  -0.00437
   D77        0.02656   0.00001  -0.00000   0.00000  -0.00000   0.02656
   D78       -3.09913  -0.00001   0.00000   0.00000   0.00000  -3.09913
   D79       -3.13881   0.00000  -0.00001   0.00000  -0.00001  -3.13882
   D80        0.01868  -0.00002  -0.00000   0.00000  -0.00000   0.01868
   D81        3.04713   0.00004   0.00000   0.00000   0.00000   3.04713
   D82       -0.14583  -0.00009   0.00001   0.00000   0.00001  -0.14582
   D83       -0.04503  -0.00003   0.00002   0.00000   0.00002  -0.04501
   D84        3.04520  -0.00017   0.00002   0.00000   0.00002   3.04522
   D85       -3.05444  -0.00002  -0.00000   0.00000  -0.00000  -3.05444
   D86        0.06129  -0.00002  -0.00001   0.00000  -0.00001   0.06128
   D87        0.03739   0.00006  -0.00001   0.00000  -0.00001   0.03738
   D88       -3.13006   0.00006  -0.00002   0.00000  -0.00002  -3.13009
   D89       -3.02586   0.00009   0.00001   0.00000   0.00001  -3.02586
   D90        0.17794   0.00007  -0.00003   0.00000  -0.00003   0.17791
   D91        0.05127   0.00005   0.00001   0.00000   0.00001   0.05128
   D92       -3.02811   0.00003  -0.00003   0.00000  -0.00003  -3.02814
   D93        3.03782  -0.00006  -0.00001   0.00000  -0.00001   3.03781
   D94       -0.06722  -0.00006   0.00001   0.00000   0.00001  -0.06722
   D95       -0.04174  -0.00002  -0.00001   0.00000  -0.00001  -0.04175
   D96        3.13641  -0.00002   0.00000   0.00000   0.00000   3.13641
   D97       -0.01318  -0.00004  -0.00000   0.00000  -0.00000  -0.01318
   D98       -3.11314  -0.00002  -0.00002   0.00000  -0.00002  -3.11316
   D99        3.06669  -0.00002   0.00004   0.00000   0.00004   3.06673
   D100      -0.03327  -0.00000   0.00002   0.00000   0.00002  -0.03325
   D101      -2.40102   0.00010   0.00002   0.00000   0.00002  -2.40100
   D102       0.80259   0.00009  -0.00002   0.00000  -0.00002   0.80257
   D103       0.00993  -0.00002  -0.00001   0.00000  -0.00001   0.00992
   D104       3.10843  -0.00005   0.00000   0.00000   0.00000   3.10843
   D105      -3.08030   0.00012  -0.00001   0.00000  -0.00001  -3.08032
   D106       0.01820   0.00009  -0.00000   0.00000  -0.00000   0.01820
   D107       2.39660   0.00004   0.00001   0.00000   0.00001   2.39661
   D108      -0.79632  -0.00010   0.00001   0.00000   0.00001  -0.79631
   D109      -0.03557   0.00001  -0.00000   0.00000  -0.00000  -0.03557
   D110       3.11871   0.00001  -0.00001   0.00000  -0.00001   3.11870
   D111       3.06541  -0.00001   0.00001   0.00000   0.00001   3.06542
   D112      -0.06349  -0.00001   0.00000   0.00000   0.00000  -0.06349
   D113      -0.74811  -0.00004  -0.00001   0.00000  -0.00001  -0.74812
   D114       2.43441  -0.00003  -0.00002   0.00000  -0.00002   2.43439
   D115       0.03340   0.00005  -0.00000   0.00000  -0.00000   0.03340
   D116      -3.11849  -0.00002   0.00001   0.00000   0.00001  -3.11848
   D117      -3.06581   0.00008  -0.00001   0.00000  -0.00001  -3.06583
   D118       0.06548   0.00000   0.00000   0.00000   0.00000   0.06548
   D119       0.75513   0.00003  -0.00000   0.00000  -0.00000   0.75513
   D120      -2.42913   0.00000   0.00001   0.00000   0.00001  -2.42912
   D121       0.00569  -0.00002   0.00000   0.00000   0.00000   0.00569
   D122       3.12602   0.00000  -0.00000   0.00000  -0.00000   3.12601
   D123      -3.10977  -0.00002   0.00001   0.00000   0.00001  -3.10975
   D124       0.01057   0.00000   0.00001   0.00000   0.00001   0.01057
   D125      -0.00660  -0.00001   0.00001   0.00000   0.00001  -0.00659
   D126      -3.12277   0.00000   0.00002   0.00000   0.00002  -3.12274
   D127       3.09813  -0.00002  -0.00001   0.00000  -0.00001   3.09812
   D128      -0.01803  -0.00000   0.00001   0.00000   0.00001  -0.01803
   D129       0.04552   0.00002  -0.00000   0.00000  -0.00000   0.04552
   D130      -3.10887   0.00002   0.00001   0.00000   0.00001  -3.10886
   D131      -3.12146   0.00000  -0.00002   0.00000  -0.00002  -3.12148
   D132       0.00733   0.00000  -0.00001   0.00000  -0.00001   0.00732
   D133      -0.04134  -0.00003   0.00000   0.00000   0.00000  -0.04133
   D134       3.11064   0.00005  -0.00001   0.00000  -0.00001   3.11063
   D135       3.12147  -0.00006   0.00001   0.00000   0.00001   3.12148
   D136      -0.00973   0.00002  -0.00000   0.00000  -0.00000  -0.00974
   D137       3.12577   0.00009   0.00004   0.00000   0.00004   3.12581
   D138      -0.01334   0.00007   0.00001   0.00000   0.00001  -0.01333
   D139      -0.00423   0.00005  -0.00003   0.00000  -0.00003  -0.00426
   D140       3.13984   0.00003  -0.00006   0.00000  -0.00006   3.13978
   D141      -3.12230  -0.00009  -0.00004   0.00000  -0.00004  -3.12234
   D142       0.01987  -0.00013  -0.00007   0.00000  -0.00007   0.01980
   D143       0.00812  -0.00005   0.00002   0.00000   0.00002   0.00814
   D144      -3.13290  -0.00009  -0.00001   0.00000  -0.00001  -3.13291
   D145      -0.00195  -0.00001   0.00001   0.00000   0.00001  -0.00194
   D146      -3.14118  -0.00002   0.00001   0.00000   0.00001  -3.14118
   D147       3.13715   0.00001   0.00004   0.00000   0.00004   3.13719
   D148      -0.00208   0.00001   0.00003   0.00000   0.00003  -0.00205
   D149      -0.00577   0.00001   0.00000   0.00000   0.00000  -0.00577
   D150       3.13320   0.00003  -0.00000   0.00000  -0.00000   3.13319
   D151       3.13525   0.00005   0.00003   0.00000   0.00003   3.13528
   D152      -0.00897   0.00007   0.00003   0.00000   0.00003  -0.00894
   D153       0.00425  -0.00002   0.00001   0.00000   0.00001   0.00427
   D154      -3.13775  -0.00000  -0.00001   0.00000  -0.00001  -3.13775
   D155      -3.13971  -0.00002   0.00002   0.00000   0.00002  -3.13970
   D156       0.00147   0.00000   0.00000   0.00000   0.00000   0.00147
   D157      -0.00032   0.00002  -0.00002   0.00000  -0.00002  -0.00034
   D158      -3.14150   0.00000  -0.00000   0.00000  -0.00000  -3.14150
   D159      -3.13925   0.00000  -0.00001   0.00000  -0.00001  -3.13927
   D160       0.00275  -0.00002   0.00000   0.00000   0.00000   0.00275
         Item               Value     Threshold  Converged?
 Maximum Force            0.000483     0.000450     NO 
 RMS     Force            0.000104     0.000300     YES
 Maximum Displacement     0.000712     0.001800     YES
 RMS     Displacement     0.000092     0.001200     YES
 Predicted change in Energy=-1.713883D-08
 GradGradGradGradGradGradGradGradGradGradGradGradGradGradGradGradGradGrad

 Stoichiometry    C32H19MnN3O3S2(1+)
 Framework group  C1[X(C32H19MnN3O3S2)]
 Deg. of freedom   174
 Full point group                 C1      NOp   1
 Largest Abelian subgroup         C1      NOp   1
 Largest concise Abelian subgroup C1      NOp   1
                         Standard orientation:                         
 ---------------------------------------------------------------------
 Center     Atomic      Atomic             Coordinates (Angstroms)
 Number     Number       Type             X           Y           Z
 ---------------------------------------------------------------------
      1         25           0        3.179262    0.210862   -0.392821
      2          6           0        3.969475   -0.330070   -1.957691
      3          6           0        4.578867   -0.460307    0.564783
      4          6           0        4.008462    1.845643   -0.426915
      5          7           0        1.646349    1.027772   -1.440883
      6          7           0        2.114162    0.758969    1.396431
      7          7           0        2.097855   -1.659683   -0.290234
      8          6           0        2.732652    1.064491    2.550422
      9          6           0        2.041320    1.457159    3.688230
     10          6           0        0.651171    1.551320    3.648212
     11          6           0       -0.003704    1.232296    2.459734
     12          6           0        0.783951    0.841127    1.378193
     13          6           0        0.799340   -1.716210   -0.596875
     14          6           0       -0.018742   -2.821577   -0.370962
     15          6           0        2.656384   -2.780722    0.199580
     16          6           0        1.939807   -3.951194    0.407845
     17          6           0        0.573758   -3.975687    0.135311
     18          6           0       -1.474550   -2.672913   -0.653080
     19          6           0       -1.471129    1.378903    2.247578
     20          6           0       -2.282623    0.309114    1.820779
     21          6           0       -2.289612   -1.926903    0.219085
     22          6           0       -3.629675    0.536262    1.503586
     23          6           0       -3.631957   -1.692429   -0.104884
     24          6           0       -2.036257   -3.217368   -1.810783
     25          6           0       -2.049522    2.643403    2.405565
     26          6           0       -3.390259    2.860860    2.100695
     27          6           0       -3.374584   -2.989241   -2.124101
     28          6           0       -4.167179   -2.208260   -1.287740
     29          6           0       -4.175896    1.816294    1.623775
     30         16           0       -1.634969   -1.348092    1.771402
     31         16           0       -4.690726   -0.797197    1.003863
     32          1           0        2.595544    1.692443    4.596904
     33          1           0        0.086623    1.866472    4.528053
     34          1           0        0.290566    0.601106    0.443289
     35          1           0        0.354457   -0.832428   -1.045040
     36          1           0        3.719721   -2.748694    0.435719
     37          1           0        2.452224   -4.828596    0.802688
     38          1           0       -0.021697   -4.870375    0.327034
     39          1           0       -1.406907   -3.805160   -2.481927
     40          1           0       -1.425505    3.474181    2.740809
     41          1           0       -3.820664    3.857248    2.213008
     42          1           0       -3.799282   -3.407169   -3.038285
     43          1           0       -5.208304   -2.003173   -1.544233
     44          1           0       -5.219962    1.986104    1.353673
     45          8           0        5.494088   -0.840088    1.136555
     46          8           0        4.515342    2.867690   -0.439597
     47          8           0        4.451900   -0.680552   -2.930147
     48          1           0        3.821781    1.002779    2.564162
     49          6           0        0.705390    1.470095   -1.943656
     50          6           0       -0.555895    1.920549   -2.451463
     51          6           0       -0.642035    2.664698   -3.636445
     52          6           0       -1.711526    1.578786   -1.726651
     53          6           0       -1.894711    3.060298   -4.093890
     54          1           0        0.262044    2.924847   -4.188620
     55          6           0       -2.955115    1.977642   -2.199591
     56          1           0       -1.641311    1.006449   -0.800386
     57          6           0       -3.045138    2.716613   -3.380927
     58          1           0       -1.974140    3.639445   -5.015101
     59          1           0       -3.853995    1.706769   -1.642907
     60          1           0       -4.023639    3.029002   -3.750558
 ---------------------------------------------------------------------
 Rotational constants (GHZ):           0.1123828           0.0674756           0.0660441
 Basis read from rwf:  (5D, 7F)
 There are   755 symmetry adapted cartesian basis functions of A   symmetry.
 There are   708 symmetry adapted basis functions of A   symmetry.
   708 basis functions,  1259 primitive gaussians,   755 cartesian basis functions
   156 alpha electrons      156 beta electrons
       nuclear repulsion energy      5760.1339270933 Hartrees.
 NAtoms=   60 NActive=   60 NUniq=   60 SFac= 1.00D+00 NAtFMM=   60 NAOKFM=T Big=T
 Integral buffers will be    131072 words long.
 Raffenetti 2 integral format.
 Two-electron integral symmetry is turned on.
 Nuclear repulsion after empirical dispersion term =     5760.0689494846 Hartrees.
 ------------------------------------------------------------------------------
 Polarizable Continuum Model (PCM)
 =================================
 Model                : PCM.
 Atomic radii         : UFF (Universal Force Field).
 Polarization charges : Total charges.
 Charge compensation  : None.
 Solution method      : On-the-fly selection.
 Cavity type          : Scaled VdW (van der Waals Surface) (Alpha=1.100).
 Cavity algorithm     : GePol (No added spheres)
                        Default sphere list used, NSphG=   60.
                        Lebedev-Laikov grids with approx.  5.0 points / Ang**2.
                        Smoothing algorithm: York/Karplus (Gamma=1.0000).
                        Polarization charges: spherical gaussians, with
                                              point-specific exponents (IZeta= 3).
                        Self-potential: point-specific (ISelfS= 7).
                        Self-field    : sphere-specific E.n sum rule (ISelfD= 2).
 1st derivatives      : Analytical E(r).r(x)/FMM algorithm (CHGder, D1EAlg=3).
                        Cavity 1st derivative terms included.
 Solvent              : TetraHydroFuran, Eps=   7.425700 Eps(inf)=   1.974025
 ------------------------------------------------------------------------------
 One-electron integrals computed using PRISM.
 PrsmSu:  requested number of processors reduced to:  11 ShMem   1 Linda.
 NBasis=   708 RedAO= T EigKep=  2.24D-04  NBF=   708
 NBsUse=   708 1.00D-06 EigRej= -1.00D+00 NBFU=   708
 Initial guess from the checkpoint file:  "checkpoint.chk"
 B after Tr=     0.000000    0.000000    0.000000
         Rot=    1.000000   -0.000092    0.000004   -0.000001 Ang=  -0.01 deg.
 Requested convergence on RMS density matrix=1.00D-08 within 128 cycles.
 Requested convergence on MAX density matrix=1.00D-06.
 Requested convergence on             energy=1.00D-06.
 No special actions if energy rises.
 CoulSu:  requested number of processors reduced to:  20 ShMem   1 Linda.
 CoulSu:  requested number of processors reduced to:  11 ShMem   1 Linda.
 Inv3:  Mode=1 IEnd=    62189427.
 Iteration    1 A*A^-1 deviation from unit magnitude is 3.55D-15 for   3930.
 Iteration    1 A*A^-1 deviation from orthogonality  is 2.66D-15 for   4119   1996.
 Iteration    1 A^-1*A deviation from unit magnitude is 3.55D-15 for   3930.
 Iteration    1 A^-1*A deviation from orthogonality  is 3.01D-15 for   1993   1340.
 CoulSu:  requested number of processors reduced to:  11 ShMem   1 Linda.
 CoulSu:  requested number of processors reduced to:  11 ShMem   1 Linda.
 CoulSu:  requested number of processors reduced to:  23 ShMem   1 Linda.
 CoulSu:  requested number of processors reduced to:  20 ShMem   1 Linda.
 Error on total polarization charges =  0.01935
 SCF Done:  E(RwB97XD) =  -3566.16494989     A.U. after    6 cycles
            NFock=  6  Conv=0.32D-08     -V/T= 2.0056
 PrsmSu:  requested number of processors reduced to:  11 ShMem   1 Linda.
 D1PCM: PCM CHGder 1st derivatives, ID1Alg=3 FixD1E=F DoIter=F DoCFld=F I1PDM=0.
 CoulSu:  requested number of processors reduced to:  22 ShMem   1 Linda.
 CoulSu:  requested number of processors reduced to:  18 ShMem   1 Linda.
 CoulSu:  requested number of processors reduced to:  18 ShMem   1 Linda.
 CoulSu:  requested number of processors reduced to:  17 ShMem   1 Linda.
 CoulSu:  requested number of processors reduced to:  10 ShMem   1 Linda.
 CoulSu:  requested number of processors reduced to:  10 ShMem   1 Linda.
 CoulSu:  requested number of processors reduced to:  22 ShMem   1 Linda.
 CoulSu:  requested number of processors reduced to:  22 ShMem   1 Linda.
 Calling FoFJK, ICntrl=      2127 FMM=T ISym2X=0 I1Cent= 0 IOpClX= 0 NMat=1 NMatS=1 NMatT=0.
 ***** Axes restored to original set *****
 -------------------------------------------------------------------
 Center     Atomic                   Forces (Hartrees/Bohr)
 Number     Number              X              Y              Z
 -------------------------------------------------------------------
      1       25           0.000068909   -0.000297171   -0.000174052
      2        6          -0.000257913    0.000075057    0.000000645
      3        6          -0.000535445    0.000165672   -0.000151519
      4        6           0.000476435    0.000339839    0.000185864
      5        7          -0.000053282    0.000306743   -0.000002977
      6        7          -0.000476439   -0.000104981   -0.000028859
      7        7           0.000158467   -0.000149211   -0.000111592
      8        6          -0.000205122    0.000169317    0.000265863
      9        6          -0.000081426    0.000061251   -0.000129796
     10        6           0.000072002   -0.000104495   -0.000074019
     11        6           0.000077665   -0.000090935    0.000026543
     12        6           0.000405971   -0.000201335   -0.000051934
     13        6          -0.000021741    0.000189042    0.000271916
     14        6           0.000058430   -0.000233369   -0.000162727
     15        6          -0.000065093    0.000009362   -0.000045922
     16        6           0.000048725   -0.000002851   -0.000049213
     17        6          -0.000000850    0.000288541    0.000196598
     18        6          -0.000085940   -0.000121741    0.000170665
     19        6          -0.000144060    0.000122160    0.000035358
     20        6           0.000000514    0.000082824   -0.000129650
     21        6          -0.000193718   -0.000151936    0.000141394
     22        6          -0.000025938   -0.000080968   -0.000127014
     23        6          -0.000095072    0.000080257    0.000023582
     24        6           0.000055815    0.000039891    0.000030760
     25        6           0.000000754   -0.000050132    0.000017168
     26        6           0.000092350   -0.000009484   -0.000057804
     27        6           0.000072884   -0.000011690    0.000055757
     28        6          -0.000086246   -0.000143874   -0.000095489
     29        6          -0.000011910   -0.000053369    0.000137876
     30       16           0.000055844    0.000363141   -0.000146128
     31       16           0.000131053    0.000035667    0.000076674
     32        1          -0.000002883   -0.000016431    0.000011672
     33        1           0.000037304   -0.000045985    0.000074045
     34        1           0.000066801    0.000026371    0.000046109
     35        1           0.000041673    0.000006746   -0.000068406
     36        1           0.000091994    0.000069256    0.000098807
     37        1          -0.000035955   -0.000032274   -0.000033949
     38        1          -0.000022182   -0.000029408   -0.000066749
     39        1           0.000036690    0.000027282   -0.000001298
     40        1          -0.000111945    0.000078407    0.000013343
     41        1          -0.000021358    0.000014881   -0.000005648
     42        1           0.000014060    0.000014375   -0.000010628
     43        1           0.000031169    0.000026953   -0.000050007
     44        1          -0.000000898   -0.000001174   -0.000043627
     45        8           0.000419875   -0.000116738    0.000070963
     46        8          -0.000225132   -0.000188757   -0.000040637
     47        8           0.000064273   -0.000027706   -0.000026645
     48        1           0.000157130    0.000052915    0.000007197
     49        6           0.000335474   -0.000714736    0.000123489
     50        6          -0.000186653    0.000305634    0.000515705
     51        6          -0.000113721    0.000091295   -0.000183382
     52        6          -0.000153985   -0.000151241   -0.000387691
     53        6           0.000116661    0.000063297    0.000055234
     54        1           0.000082038   -0.000005859   -0.000041829
     55        6           0.000061336   -0.000186872   -0.000084645
     56        1          -0.000018259    0.000197709   -0.000158406
     57        6          -0.000067821    0.000009909    0.000045791
     58        1           0.000026689    0.000039238    0.000004030
     59        1          -0.000045985   -0.000017678    0.000057657
     60        1          -0.000012018   -0.000010631   -0.000018464
 -------------------------------------------------------------------
 Cartesian Forces:  Max     0.000714736 RMS     0.000156106

 GradGradGradGradGradGradGradGradGradGradGradGradGradGradGradGradGradGrad
 Berny optimization.
 Using GEDIIS/GDIIS optimizer.
 FormGI is forming the generalized inverse of G from B-inverse, IUseBI=4.
 Internal  Forces:  Max     0.000483662 RMS     0.000103859
 Search for a local minimum.
 Step number 282 out of a maximum of  356
 All quantities printed in internal units (Hartrees-Bohrs-Radians)
 Mixed Optimization -- En-DIIS/RFO-DIIS
 Swapping is turned off.
 Update second derivatives using D2CorX and points  183  184  185  186  187
                                                    188  189  190  191  192
                                                    193  194  195  196  197
                                                    198  199  200  201  202
                                                    203  204  205  206  207
                                                    208  210  211  212  213
                                                    214  215  216  217  218
                                                    219  220  221  222  223
                                                    224  225  226  227  228
                                                    229  230  231  232  233
                                                    234  235  236  237  238
                                                    239  240  241  242  243
                                                    244  245  246  247  248
                                                    249  250  251  252  253
                                                    254  255  256  257  258
                                                    259  260  262  261  263
                                                    209  264  265  266  267
                                                    268  269  270  271  272
                                                    273  274  275  276  277
                                                    278  279  280  282
 DE=  3.65D-08 DEPred=-1.71D-08 R=-2.13D+00
 Trust test=-2.13D+00 RLast= 5.11D-04 DXMaxT set to 5.00D-02
 ITU= -1  0  1 -1  1  1 -1 -1  1 -1 -1 -1 -1 -1 -1 -1  1 -1  0  0
 ITU=  0 -1 -1  1  1 -1  1 -1 -1  1  1 -1  1 -1  1 -1 -1 -1  1 -1
 ITU= -1 -1 -1  0 -1  1 -1 -1  0 -1 -1 -1  1  1 -1  1 -1 -1 -1 -1
 ITU= -1 -1  1 -1  1 -1 -1  1  1  1 -1  1 -1  1  1  1 -1 -1  1 -1
 ITU= -1  1  1 -1 -1  1  1  1 -1 -1  1  1 -1  1  1 -1 -1  1  1  1
     Eigenvalues ---    0.00002   0.00073   0.00108   0.00133   0.00194
     Eigenvalues ---    0.00393   0.00543   0.00615   0.00832   0.00925
     Eigenvalues ---    0.01000   0.01156   0.01249   0.01334   0.01445
     Eigenvalues ---    0.01479   0.01571   0.01616   0.01676   0.01779
     Eigenvalues ---    0.01805   0.01836   0.01895   0.01919   0.01950
     Eigenvalues ---    0.01980   0.02003   0.02049   0.02070   0.02087
     Eigenvalues ---    0.02119   0.02124   0.02142   0.02165   0.02167
     Eigenvalues ---    0.02178   0.02190   0.02205   0.02221   0.02235
     Eigenvalues ---    0.02265   0.02305   0.02439   0.02448   0.02600
     Eigenvalues ---    0.02720   0.02911   0.02989   0.03145   0.03585
     Eigenvalues ---    0.04228   0.04309   0.04521   0.05215   0.05439
     Eigenvalues ---    0.05848   0.06133   0.06190   0.06670   0.07014
     Eigenvalues ---    0.07756   0.08307   0.08634   0.09159   0.10168
     Eigenvalues ---    0.10398   0.11034   0.11374   0.12037   0.12360
     Eigenvalues ---    0.12821   0.13761   0.14387   0.14647   0.14968
     Eigenvalues ---    0.15243   0.15298   0.15668   0.15765   0.15862
     Eigenvalues ---    0.15921   0.15943   0.15959   0.16003   0.16011
     Eigenvalues ---    0.16093   0.16153   0.16360   0.17069   0.17318
     Eigenvalues ---    0.18013   0.19472   0.20014   0.20208   0.20572
     Eigenvalues ---    0.20855   0.21281   0.21501   0.21763   0.21927
     Eigenvalues ---    0.22054   0.22174   0.22232   0.22438   0.22781
     Eigenvalues ---    0.22992   0.23269   0.23555   0.23965   0.24005
     Eigenvalues ---    0.24522   0.25267   0.25426   0.26556   0.26712
     Eigenvalues ---    0.27065   0.27479   0.30369   0.32091   0.32927
     Eigenvalues ---    0.33874   0.34096   0.34247   0.34469   0.34531
     Eigenvalues ---    0.34579   0.34614   0.34638   0.34658   0.34667
     Eigenvalues ---    0.34700   0.34726   0.34780   0.34820   0.34844
     Eigenvalues ---    0.34935   0.35276   0.35887   0.36145   0.37258
     Eigenvalues ---    0.37710   0.39721   0.40078   0.40729   0.41136
     Eigenvalues ---    0.42079   0.42206   0.42572   0.43175   0.43753
     Eigenvalues ---    0.43876   0.44411   0.45118   0.45214   0.45592
     Eigenvalues ---    0.45922   0.45957   0.46296   0.46509   0.46713
     Eigenvalues ---    0.47121   0.47449   0.48084   0.48489   0.49113
     Eigenvalues ---    0.50395   0.52684   0.54653   0.57738   0.61146
     Eigenvalues ---    1.24724   1.28348   1.36899   1.39848
 Eigenvalue     1 is   1.86D-05 Eigenvector:
                          D1        D7        D3        D5        D2
   1                   -0.41672  -0.41043  -0.40701  -0.38590  -0.22373
                          D8        D4        D6        D71       D72
   1                   -0.21744  -0.21402  -0.19291  -0.10459  -0.08672
 En-DIIS/RFO-DIIS/Sim-DIIS IScMMF=       -3 using points:   282  281  280  279  278  277  276  275  274  273
 RFO step:  Lambda=-1.06666950D-04.
 DIIS inversion failure, remove point  10.
 DIIS inversion failure, remove point   9.
 DIIS inversion failure, remove point   8.
 DIIS inversion failure, remove point   7.
 DIIS inversion failure, remove point   6.
 DIIS inversion failure, remove point   5.
 DIIS inversion failure, remove point   4.
 DIIS inversion failure, remove point   3.
 DIIS inversion failure, remove point   2.
 EnCoef did   100 forward-backward iterations
 EnCoef did   100 forward-backward iterations
 EnCoef did   100 forward-backward iterations
 EnCoef did   100 forward-backward iterations
 EnCoef did   100 forward-backward iterations
 EnCoef did     1 forward-backward iterations
 DidBck=T Rises=T En-DIIS coefs:    0.96794    0.00000    0.03206    0.00000    0.00000
                  En-DIIS coefs:    0.00000    0.00000    0.00000    0.00000    0.00000
 Iteration  1 RMS(Cart)=  0.00004936 RMS(Int)=  0.00000000
 Iteration  2 RMS(Cart)=  0.00000000 RMS(Int)=  0.00000000
 Variable       Old X    -DE/DX   Delta X   Delta X   Delta X     New X
                                 (Linear)    (Quad)   (Total)
    R1        3.46695   0.00010  -0.00000   0.00000  -0.00000   3.46695
    R2        3.44654   0.00011  -0.00001   0.00000  -0.00001   3.44654
    R3        3.46457  -0.00012   0.00001   0.00000   0.00001   3.46457
    R4        3.83367   0.00005  -0.00000   0.00000  -0.00000   3.83367
    R5        4.06896  -0.00005   0.00000   0.00000   0.00000   4.06897
    R6        4.08762   0.00012  -0.00000   0.00000  -0.00000   4.08762
    R7        2.15565   0.00000   0.00000   0.00000   0.00000   2.15565
    R8        2.16189  -0.00038   0.00000   0.00000   0.00000   2.16189
    R9        2.15600   0.00019   0.00000   0.00000   0.00000   2.15600
   R10        2.18248   0.00029  -0.00000   0.00000  -0.00000   2.18248
   R11        2.54066   0.00028  -0.00000   0.00000  -0.00000   2.54066
   R12        2.51876   0.00036  -0.00000   0.00000  -0.00000   2.51876
   R13        2.52359  -0.00005   0.00001   0.00000   0.00001   2.52360
   R14        2.54138   0.00007  -0.00000   0.00000  -0.00000   2.54138
   R15        2.62307  -0.00010  -0.00000   0.00000  -0.00000   2.62307
   R16        2.06162  -0.00014   0.00000   0.00000   0.00000   2.06162
   R17        2.63411   0.00006  -0.00000   0.00000  -0.00000   2.63410
   R18        2.05990   0.00000   0.00000   0.00000   0.00000   2.05990
   R19        2.63420  -0.00010   0.00000   0.00000   0.00000   2.63420
   R20        2.06331   0.00006   0.00000   0.00000   0.00000   2.06331
   R21        2.63422  -0.00008   0.00001   0.00000   0.00001   2.63422
   R22        2.81553  -0.00032   0.00000   0.00000   0.00000   2.81553
   R23        2.04849  -0.00002   0.00000   0.00000   0.00000   2.04849
   R24        2.63353   0.00000  -0.00000   0.00000  -0.00000   2.63353
   R25        2.05263  -0.00002  -0.00000   0.00000  -0.00000   2.05263
   R26        2.63164   0.00015  -0.00000   0.00000  -0.00000   2.63163
   R27        2.81631  -0.00004   0.00000   0.00000   0.00000   2.81631
   R28        2.62316   0.00003   0.00000   0.00000   0.00000   2.62316
   R29        2.05926  -0.00005   0.00000   0.00000   0.00000   2.05926
   R30        2.63274  -0.00004   0.00000   0.00000   0.00000   2.63274
   R31        2.05998  -0.00000  -0.00000   0.00000  -0.00000   2.05998
   R32        2.06300   0.00000   0.00000   0.00000   0.00000   2.06300
   R33        2.66011  -0.00006   0.00000   0.00000   0.00000   2.66011
   R34        2.64036   0.00002   0.00000   0.00000   0.00000   2.64036
   R35        2.66252   0.00006  -0.00000   0.00000  -0.00000   2.66252
   R36        2.64458  -0.00007  -0.00000   0.00000  -0.00000   2.64458
   R37        2.65017   0.00006  -0.00000   0.00000  -0.00000   2.65017
   R38        3.36362   0.00009  -0.00001   0.00000  -0.00001   3.36362
   R39        2.64685   0.00006   0.00000   0.00000   0.00000   2.64685
   R40        3.36630  -0.00006  -0.00000   0.00000  -0.00000   3.36629
   R41        2.63973   0.00010  -0.00000   0.00000  -0.00000   2.63973
   R42        3.35588  -0.00006  -0.00000   0.00000  -0.00000   3.35588
   R43        2.64000   0.00010  -0.00000   0.00000  -0.00000   2.64000
   R44        3.35486   0.00007  -0.00000   0.00000  -0.00000   3.35486
   R45        2.63298  -0.00000   0.00000   0.00000   0.00000   2.63299
   R46        2.06319  -0.00002   0.00000   0.00000   0.00000   2.06319
   R47        2.63060   0.00002   0.00000   0.00000   0.00000   2.63060
   R48        2.06316   0.00006  -0.00000   0.00000  -0.00000   2.06316
   R49        2.62923  -0.00003   0.00000   0.00000   0.00000   2.62923
   R50        2.06201  -0.00002   0.00000   0.00000   0.00000   2.06201
   R51        2.63048  -0.00013  -0.00000   0.00000  -0.00000   2.63048
   R52        2.06211   0.00001  -0.00000   0.00000  -0.00000   2.06211
   R53        2.06300   0.00002   0.00000   0.00000   0.00000   2.06300
   R54        2.06306   0.00000   0.00000   0.00000   0.00000   2.06306
   R55        2.70674  -0.00043  -0.00000   0.00000  -0.00000   2.70674
   R56        2.64923  -0.00004  -0.00000   0.00000  -0.00000   2.64923
   R57        2.65749  -0.00019  -0.00000   0.00000  -0.00000   2.65749
   R58        2.62866   0.00004   0.00000   0.00000   0.00000   2.62866
   R59        2.06139  -0.00007   0.00000   0.00000   0.00000   2.06139
   R60        2.62480   0.00009  -0.00000   0.00000  -0.00000   2.62480
   R61        2.06185   0.00017  -0.00000   0.00000  -0.00000   2.06185
   R62        2.63880  -0.00016  -0.00000   0.00000  -0.00000   2.63880
   R63        2.06175  -0.00004  -0.00000   0.00000  -0.00000   2.06175
   R64        2.63868  -0.00013   0.00000   0.00000   0.00000   2.63868
   R65        2.06253  -0.00004  -0.00000   0.00000  -0.00000   2.06253
   R66        2.06290  -0.00000  -0.00000   0.00000  -0.00000   2.06290
    A1        1.57961  -0.00006  -0.00001   0.00000  -0.00001   1.57960
    A2        1.62306   0.00006  -0.00000   0.00000  -0.00000   1.62306
    A3        1.57433  -0.00009  -0.00000   0.00000  -0.00000   1.57432
    A4        1.57161   0.00020   0.00001   0.00000   0.00001   1.57162
    A5        1.56162   0.00007  -0.00001   0.00000  -0.00001   1.56161
    A6        1.60778  -0.00014   0.00002   0.00000   0.00002   1.60780
    A7        1.61133  -0.00001   0.00001   0.00000   0.00001   1.61134
    A8        1.54388   0.00003  -0.00000   0.00000  -0.00000   1.54388
    A9        1.58299  -0.00018   0.00000   0.00000   0.00000   1.58300
   A10        1.52380   0.00027  -0.00000   0.00000  -0.00000   1.52380
   A11        1.56576  -0.00008   0.00000   0.00000   0.00000   1.56576
   A12        1.50417  -0.00007  -0.00001   0.00000  -0.00001   1.50415
   A13        2.14544   0.00002  -0.00001   0.00000  -0.00001   2.14543
   A14        2.09208   0.00003   0.00001   0.00000   0.00001   2.09209
   A15        2.04525  -0.00005  -0.00000   0.00000  -0.00000   2.04525
   A16        2.10812   0.00002   0.00000   0.00000   0.00000   2.10812
   A17        2.12998   0.00002  -0.00000   0.00000  -0.00000   2.12998
   A18        2.04000  -0.00005  -0.00000   0.00000  -0.00000   2.04000
   A19        2.13974  -0.00001   0.00000   0.00000   0.00000   2.13974
   A20        2.04565   0.00005  -0.00000   0.00000  -0.00000   2.04565
   A21        2.09774  -0.00004  -0.00000   0.00000  -0.00000   2.09774
   A22        2.08551   0.00002   0.00000   0.00000   0.00000   2.08551
   A23        2.08420  -0.00002  -0.00000   0.00000  -0.00000   2.08420
   A24        2.11346  -0.00001  -0.00000   0.00000  -0.00000   2.11346
   A25        2.06866   0.00003  -0.00000   0.00000  -0.00000   2.06865
   A26        2.10833  -0.00000  -0.00000   0.00000  -0.00000   2.10833
   A27        2.10620  -0.00003   0.00000   0.00000   0.00000   2.10620
   A28        2.04909   0.00012   0.00000   0.00000   0.00000   2.04910
   A29        2.16710  -0.00003   0.00000   0.00000   0.00000   2.16711
   A30        2.06423  -0.00009  -0.00000   0.00000  -0.00000   2.06422
   A31        2.17803  -0.00011  -0.00000   0.00000  -0.00000   2.17803
   A32        2.04024   0.00014  -0.00000   0.00000  -0.00000   2.04024
   A33        2.06474  -0.00003   0.00001   0.00000   0.00001   2.06475
   A34        2.17384   0.00004   0.00000   0.00000   0.00000   2.17384
   A35        2.04716   0.00005   0.00001   0.00000   0.00001   2.04717
   A36        2.06214  -0.00009  -0.00001   0.00000  -0.00001   2.06213
   A37        2.05614   0.00000   0.00000   0.00000   0.00000   2.05614
   A38        2.05288  -0.00005   0.00000   0.00000   0.00000   2.05288
   A39        2.17377   0.00004  -0.00000   0.00000  -0.00000   2.17377
   A40        2.14497   0.00004   0.00000   0.00000   0.00000   2.14497
   A41        2.04844  -0.00000   0.00000   0.00000   0.00000   2.04844
   A42        2.08978  -0.00004  -0.00000   0.00000  -0.00000   2.08978
   A43        2.08477   0.00001   0.00000   0.00000   0.00000   2.08477
   A44        2.08331  -0.00003   0.00000   0.00000   0.00000   2.08331
   A45        2.11486   0.00002  -0.00000   0.00000  -0.00000   2.11486
   A46        2.06431  -0.00004  -0.00000   0.00000  -0.00000   2.06431
   A47        2.10711   0.00003  -0.00000   0.00000  -0.00000   2.10711
   A48        2.11165   0.00002   0.00000   0.00000   0.00000   2.11166
   A49        2.09576  -0.00006  -0.00000   0.00000  -0.00000   2.09576
   A50        2.10678   0.00007   0.00000   0.00000   0.00000   2.10678
   A51        2.07957  -0.00001  -0.00000   0.00000  -0.00000   2.07957
   A52        2.13612   0.00003  -0.00000   0.00000  -0.00000   2.13611
   A53        2.07133  -0.00017   0.00000   0.00000   0.00000   2.07134
   A54        2.07398   0.00013  -0.00000   0.00000  -0.00000   2.07398
   A55        2.09296  -0.00014   0.00000   0.00000   0.00000   2.09296
   A56        2.10106   0.00003  -0.00001   0.00000  -0.00001   2.10105
   A57        2.08751   0.00011   0.00000   0.00000   0.00000   2.08751
   A58        2.09477  -0.00003  -0.00000   0.00000  -0.00000   2.09477
   A59        2.09362  -0.00004   0.00000   0.00000   0.00000   2.09362
   A60        2.09366   0.00006  -0.00000   0.00000  -0.00000   2.09366
   A61        2.09966   0.00002  -0.00000   0.00000  -0.00000   2.09966
   A62        2.11289   0.00002  -0.00000   0.00000  -0.00000   2.11288
   A63        2.06991  -0.00004   0.00000   0.00000   0.00000   2.06991
   A64        2.09577   0.00001   0.00000   0.00000   0.00000   2.09578
   A65        2.10775   0.00007   0.00000   0.00000   0.00000   2.10775
   A66        2.07887  -0.00008  -0.00000   0.00000  -0.00000   2.07887
   A67        2.10444   0.00005   0.00000   0.00000   0.00000   2.10444
   A68        2.07989  -0.00001   0.00000   0.00000   0.00000   2.07989
   A69        2.09856  -0.00004  -0.00000   0.00000  -0.00000   2.09856
   A70        2.11121  -0.00002  -0.00000   0.00000  -0.00000   2.11121
   A71        2.07831  -0.00011   0.00000   0.00000   0.00000   2.07831
   A72        2.09309   0.00013  -0.00000   0.00000  -0.00000   2.09309
   A73        2.09629  -0.00003   0.00000   0.00000   0.00000   2.09629
   A74        2.09440  -0.00001   0.00000   0.00000   0.00000   2.09440
   A75        2.09221   0.00003  -0.00000   0.00000  -0.00000   2.09221
   A76        2.09864  -0.00001   0.00000   0.00000   0.00000   2.09864
   A77        2.09384   0.00001  -0.00000   0.00000  -0.00000   2.09384
   A78        2.09051  -0.00000  -0.00000   0.00000  -0.00000   2.09051
   A79        2.09179  -0.00000  -0.00000   0.00000  -0.00000   2.09179
   A80        2.08856   0.00003   0.00000   0.00000   0.00000   2.08856
   A81        2.10279  -0.00003   0.00000   0.00000   0.00000   2.10279
   A82        2.09054   0.00003  -0.00000   0.00000  -0.00000   2.09054
   A83        2.08886  -0.00005   0.00000   0.00000   0.00000   2.08887
   A84        2.10371   0.00002  -0.00000   0.00000  -0.00000   2.10371
   A85        1.76499  -0.00024   0.00000   0.00000   0.00000   1.76499
   A86        1.77017  -0.00018   0.00000   0.00000   0.00000   1.77017
   A87        2.11848   0.00004   0.00000   0.00000   0.00000   2.11848
   A88        2.05383  -0.00002  -0.00000   0.00000  -0.00000   2.05382
   A89        2.11083  -0.00002   0.00000   0.00000   0.00000   2.11083
   A90        2.07631  -0.00002  -0.00000   0.00000  -0.00000   2.07631
   A91        2.09848   0.00006  -0.00000   0.00000  -0.00000   2.09847
   A92        2.10839  -0.00004   0.00000   0.00000   0.00000   2.10839
   A93        2.08342   0.00001  -0.00000   0.00000  -0.00000   2.08342
   A94        2.10848  -0.00005  -0.00000   0.00000  -0.00000   2.10848
   A95        2.09129   0.00004   0.00001   0.00000   0.00001   2.09129
   A96        2.09904   0.00005  -0.00000   0.00000  -0.00000   2.09904
   A97        2.08770   0.00000  -0.00000   0.00000  -0.00000   2.08770
   A98        2.09644  -0.00005   0.00000   0.00000   0.00000   2.09644
   A99        2.09181   0.00002   0.00000   0.00000   0.00000   2.09181
   A100       2.08567  -0.00002   0.00000   0.00000   0.00000   2.08568
   A101       2.10570   0.00000  -0.00000   0.00000  -0.00000   2.10570
   A102       2.10494  -0.00004   0.00000   0.00000   0.00000   2.10494
   A103       2.08881   0.00000   0.00000   0.00000   0.00000   2.08881
   A104       2.08944   0.00004  -0.00000   0.00000  -0.00000   2.08944
   A105       3.18739  -0.00019   0.00001   0.00000   0.00001   3.18739
   A106       3.15393  -0.00015  -0.00001   0.00000  -0.00001   3.15392
   A107       3.19467   0.00026   0.00001   0.00000   0.00001   3.19468
   A108       3.12762  -0.00004  -0.00000   0.00000  -0.00000   3.12762
   A109       3.16033  -0.00041   0.00000   0.00000   0.00000   3.16033
   A110       3.13136   0.00048  -0.00001   0.00000  -0.00001   3.13135
   A111       3.04930   0.00048  -0.00001   0.00000  -0.00001   3.04929
   A112       3.03204  -0.00039  -0.00000   0.00000  -0.00000   3.03204
   A113       3.20565  -0.00012   0.00000   0.00000   0.00000   3.20565
   A114       3.17709  -0.00009   0.00001   0.00000   0.00001   3.17711
   A115       3.17340   0.00006   0.00000   0.00000   0.00000   3.17340
   A116       3.13679  -0.00015   0.00002   0.00000   0.00002   3.13681
   A117       3.19572  -0.00025   0.00002   0.00000   0.00002   3.19574
   A118       3.14754  -0.00011   0.00001   0.00000   0.00001   3.14755
   A119       3.18793   0.00018  -0.00000   0.00000  -0.00000   3.18793
   A120       3.08176   0.00006   0.00000   0.00000   0.00000   3.08176
    D1       -0.71561   0.00012  -0.00009   0.00000  -0.00009  -0.71571
    D2        2.40861  -0.00024  -0.00004   0.00000  -0.00004   2.40856
    D3        0.90977   0.00019  -0.00009   0.00000  -0.00009   0.90968
    D4       -2.24919  -0.00017  -0.00005   0.00000  -0.00005  -2.24923
    D5        2.48941  -0.00001  -0.00009   0.00000  -0.00009   2.48932
    D6       -0.66955  -0.00036  -0.00004   0.00000  -0.00004  -0.66960
    D7       -2.28228  -0.00008  -0.00010   0.00000  -0.00010  -2.28238
    D8        0.84194  -0.00043  -0.00005   0.00000  -0.00005   0.84189
    D9        0.48987   0.00002  -0.00002   0.00000  -0.00002   0.48985
   D10       -2.68371   0.00005  -0.00003   0.00000  -0.00003  -2.68374
   D11       -1.07220  -0.00004  -0.00001   0.00000  -0.00001  -1.07220
   D12        2.03741  -0.00001  -0.00002   0.00000  -0.00002   2.03740
   D13       -2.61547  -0.00008  -0.00001   0.00000  -0.00001  -2.61547
   D14        0.49414  -0.00005  -0.00001   0.00000  -0.00001   0.49413
   D15        2.09884   0.00002  -0.00001   0.00000  -0.00001   2.09883
   D16       -1.07474   0.00005  -0.00002   0.00000  -0.00002  -1.07475
   D17       -1.81782  -0.00014   0.00001   0.00000   0.00001  -1.81780
   D18        1.43539  -0.00008   0.00004   0.00000   0.00004   1.43543
   D19        2.88572  -0.00010   0.00002   0.00000   0.00002   2.88574
   D20       -0.14426  -0.00004   0.00005   0.00000   0.00005  -0.14421
   D21       -0.24349  -0.00023   0.00001   0.00000   0.00001  -0.24348
   D22        3.00971  -0.00018   0.00003   0.00000   0.00003   3.00975
   D23        1.28054   0.00005   0.00001   0.00000   0.00001   1.28054
   D24       -1.74944   0.00010   0.00003   0.00000   0.00003  -1.74941
   D25        3.10574   0.00000  -0.00001   0.00000  -0.00001   3.10573
   D26       -0.02535  -0.00001  -0.00001   0.00000  -0.00001  -0.02537
   D27       -0.00467  -0.00003  -0.00000   0.00000  -0.00000  -0.00467
   D28       -3.13577  -0.00004  -0.00001   0.00000  -0.00001  -3.13577
   D29       -3.09909  -0.00003   0.00001   0.00000   0.00001  -3.09908
   D30        0.02227   0.00000   0.00001   0.00000   0.00001   0.02227
   D31        0.01232   0.00000   0.00000   0.00000   0.00000   0.01232
   D32        3.13368   0.00003   0.00000   0.00000   0.00000   3.13368
   D33       -2.96688  -0.00001   0.00003   0.00000   0.00003  -2.96685
   D34        0.16465   0.00002   0.00002   0.00000   0.00002   0.16467
   D35        0.06866  -0.00006   0.00000   0.00000   0.00000   0.06866
   D36       -3.08300  -0.00003  -0.00000   0.00000  -0.00000  -3.08300
   D37        3.01701   0.00003  -0.00002   0.00000  -0.00002   3.01698
   D38       -0.12612   0.00004  -0.00001   0.00000  -0.00001  -0.12614
   D39       -0.01710   0.00008   0.00000   0.00000   0.00000  -0.01710
   D40        3.12296   0.00009   0.00001   0.00000   0.00001   3.12297
   D41       -0.00675   0.00000  -0.00000   0.00000  -0.00000  -0.00675
   D42        3.14102   0.00002  -0.00001   0.00000  -0.00001   3.14101
   D43        3.12404   0.00002   0.00001   0.00000   0.00001   3.12404
   D44       -0.01137   0.00004  -0.00001   0.00000  -0.00001  -0.01138
   D45        0.01091   0.00004  -0.00000   0.00000  -0.00000   0.01091
   D46       -3.13219   0.00003  -0.00001   0.00000  -0.00001  -3.13221
   D47       -3.13697   0.00002   0.00001   0.00000   0.00001  -3.13696
   D48        0.00311   0.00001  -0.00000   0.00000  -0.00000   0.00311
   D49       -0.00403  -0.00006   0.00001   0.00000   0.00001  -0.00403
   D50       -3.06426  -0.00005  -0.00001   0.00000  -0.00001  -3.06427
   D51        3.13907  -0.00005   0.00002   0.00000   0.00002   3.13908
   D52        0.07884  -0.00004   0.00000   0.00000   0.00000   0.07885
   D53       -0.00799   0.00004  -0.00001   0.00000  -0.00001  -0.00800
   D54       -3.12909   0.00001  -0.00000   0.00000  -0.00000  -3.12909
   D55        3.05717   0.00004   0.00001   0.00000   0.00001   3.05718
   D56       -0.06393   0.00001   0.00001   0.00000   0.00001  -0.06392
   D57       -2.18348  -0.00002   0.00003   0.00000   0.00003  -2.18345
   D58        1.02248   0.00002   0.00002   0.00000   0.00002   1.02250
   D59        1.04014  -0.00002   0.00001   0.00000   0.00001   1.04015
   D60       -2.03709   0.00002   0.00001   0.00000   0.00001  -2.03708
   D61       -0.07061   0.00002  -0.00001   0.00000  -0.00001  -0.07062
   D62        3.04209  -0.00003  -0.00001   0.00000  -0.00001   3.04208
   D63        3.08112  -0.00002  -0.00000   0.00000  -0.00000   3.08112
   D64       -0.08935  -0.00007  -0.00001   0.00000  -0.00001  -0.08936
   D65        0.01944   0.00001   0.00000   0.00000   0.00000   0.01944
   D66       -3.13802   0.00003   0.00000   0.00000   0.00000  -3.13802
   D67       -3.09108   0.00006   0.00001   0.00000   0.00001  -3.09107
   D68        0.03465   0.00008   0.00001   0.00000   0.00001   0.03466
   D69       -1.29014  -0.00015  -0.00002   0.00000  -0.00002  -1.29016
   D70        1.80122  -0.00007  -0.00003   0.00000  -0.00003   1.80119
   D71        1.82044  -0.00020  -0.00003   0.00000  -0.00003   1.82041
   D72       -1.37139  -0.00012  -0.00004   0.00000  -0.00004  -1.37143
   D73       -0.02929  -0.00006  -0.00000   0.00000  -0.00000  -0.02930
   D74        3.13565  -0.00006   0.00000   0.00000   0.00000   3.13565
   D75        3.11387  -0.00006  -0.00001   0.00000  -0.00001   3.11386
   D76       -0.00437  -0.00006  -0.00001   0.00000  -0.00001  -0.00438
   D77        0.02656   0.00001  -0.00000   0.00000  -0.00000   0.02656
   D78       -3.09913  -0.00001   0.00000   0.00000   0.00000  -3.09913
   D79       -3.13882   0.00000  -0.00000   0.00000  -0.00000  -3.13882
   D80        0.01868  -0.00002  -0.00000   0.00000  -0.00000   0.01868
   D81        3.04713   0.00004   0.00000   0.00000   0.00000   3.04713
   D82       -0.14582  -0.00009   0.00000   0.00000   0.00000  -0.14582
   D83       -0.04501  -0.00003   0.00001   0.00000   0.00001  -0.04500
   D84        3.04522  -0.00017   0.00001   0.00000   0.00001   3.04523
   D85       -3.05444  -0.00002  -0.00000   0.00000  -0.00000  -3.05444
   D86        0.06128  -0.00001  -0.00001   0.00000  -0.00001   0.06127
   D87        0.03738   0.00006  -0.00001   0.00000  -0.00001   0.03737
   D88       -3.13009   0.00006  -0.00001   0.00000  -0.00001  -3.13010
   D89       -3.02586   0.00009   0.00000   0.00000   0.00000  -3.02585
   D90        0.17791   0.00007  -0.00002   0.00000  -0.00002   0.17789
   D91        0.05128   0.00005   0.00000   0.00000   0.00000   0.05128
   D92       -3.02814   0.00003  -0.00002   0.00000  -0.00002  -3.02816
   D93        3.03781  -0.00006  -0.00000   0.00000  -0.00000   3.03780
   D94       -0.06722  -0.00006   0.00000   0.00000   0.00000  -0.06721
   D95       -0.04175  -0.00002  -0.00001   0.00000  -0.00001  -0.04176
   D96        3.13641  -0.00002   0.00000   0.00000   0.00000   3.13641
   D97       -0.01318  -0.00004  -0.00000   0.00000  -0.00000  -0.01318
   D98       -3.11316  -0.00002  -0.00001   0.00000  -0.00001  -3.11317
   D99        3.06673  -0.00002   0.00002   0.00000   0.00002   3.06675
   D100      -0.03325  -0.00001   0.00001   0.00000   0.00001  -0.03324
   D101      -2.40100   0.00010   0.00001   0.00000   0.00001  -2.40099
   D102       0.80257   0.00009  -0.00001   0.00000  -0.00001   0.80256
   D103       0.00992  -0.00002  -0.00001   0.00000  -0.00001   0.00991
   D104       3.10843  -0.00005   0.00000   0.00000   0.00000   3.10843
   D105      -3.08032   0.00012  -0.00001   0.00000  -0.00001  -3.08032
   D106       0.01820   0.00009  -0.00000   0.00000  -0.00000   0.01820
   D107       2.39661   0.00004   0.00000   0.00000   0.00000   2.39661
   D108      -0.79631  -0.00010   0.00001   0.00000   0.00001  -0.79631
   D109      -0.03557   0.00001  -0.00000   0.00000  -0.00000  -0.03557
   D110       3.11870   0.00001  -0.00001   0.00000  -0.00001   3.11870
   D111       3.06542  -0.00001   0.00001   0.00000   0.00001   3.06543
   D112      -0.06349  -0.00001   0.00000   0.00000   0.00000  -0.06349
   D113      -0.74812  -0.00004  -0.00001   0.00000  -0.00001  -0.74813
   D114       2.43439  -0.00003  -0.00001   0.00000  -0.00001   2.43437
   D115       0.03340   0.00005  -0.00000   0.00000  -0.00000   0.03340
   D116      -3.11848  -0.00003   0.00001   0.00000   0.00001  -3.11847
   D117      -3.06583   0.00008  -0.00001   0.00000  -0.00001  -3.06583
   D118       0.06548   0.00000   0.00000   0.00000   0.00000   0.06548
   D119       0.75513   0.00003  -0.00000   0.00000  -0.00000   0.75513
   D120      -2.42912   0.00000   0.00001   0.00000   0.00001  -2.42912
   D121       0.00569  -0.00002   0.00000   0.00000   0.00000   0.00569
   D122       3.12601   0.00000  -0.00000   0.00000  -0.00000   3.12601
   D123      -3.10975  -0.00003   0.00001   0.00000   0.00001  -3.10975
   D124       0.01057   0.00000   0.00000   0.00000   0.00000   0.01058
   D125      -0.00659  -0.00001   0.00000   0.00000   0.00000  -0.00659
   D126      -3.12274   0.00000   0.00001   0.00000   0.00001  -3.12273
   D127       3.09812  -0.00002  -0.00000   0.00000  -0.00000   3.09812
   D128      -0.01803  -0.00000   0.00000   0.00000   0.00000  -0.01802
   D129       0.04552   0.00002  -0.00000   0.00000  -0.00000   0.04552
   D130      -3.10886   0.00002   0.00000   0.00000   0.00000  -3.10886
   D131      -3.12148   0.00000  -0.00001   0.00000  -0.00001  -3.12149
   D132       0.00732   0.00001  -0.00000   0.00000  -0.00000   0.00732
   D133      -0.04133  -0.00003   0.00000   0.00000   0.00000  -0.04133
   D134       3.11063   0.00005  -0.00001   0.00000  -0.00001   3.11062
   D135       3.12148  -0.00006   0.00001   0.00000   0.00001   3.12149
   D136      -0.00974   0.00002  -0.00000   0.00000  -0.00000  -0.00974
   D137       3.12581   0.00009   0.00002   0.00000   0.00002   3.12583
[...]
     60          1           0       -4.022533    2.949174   -3.778739
 ---------------------------------------------------------------------
 Rotational constants (GHZ):           0.1126856           0.0676160           0.0660402

 **********************************************************************

            Population analysis using the SCF density.

 **********************************************************************

 Orbital symmetries:
       Occupied  (A) (A) (A) (A) (A) (A) (A) (A) (A) (A) (A) (A)
                 (A) (A) (A) (A) (A) (A) (A) (A) (A) (A) (A) (A)
                 (A) (A) (A) (A) (A) (A) (A) (A) (A) (A) (A) (A)
                 (A) (A) (A) (A) (A) (A) (A) (A) (A) (A) (A) (A)
                 (A) (A) (A) (A) (A) (A) (A) (A) (A) (A) (A) (A)
                 (A) (A) (A) (A) (A) (A) (A) (A) (A) (A) (A) (A)
                 (A) (A) (A) (A) (A) (A) (A) (A) (A) (A) (A) (A)
                 (A) (A) (A) (A) (A) (A) (A) (A) (A) (A) (A) (A)
                 (A) (A) (A) (A) (A) (A) (A) (A) (A) (A) (A) (A)
                 (A) (A) (A) (A) (A) (A) (A) (A) (A) (A) (A) (A)
                 (A) (A) (A) (A) (A) (A) (A) (A) (A) (A) (A) (A)
                 (A) (A) (A) (A) (A) (A) (A) (A) (A) (A) (A) (A)
                 (A) (A) (A) (A) (A) (A) (A) (A) (A) (A) (A) (A)
       Virtual   (A) (A) (A) (A) (A) (A) (A) (A) (A) (A) (A) (A)
                 (A) (A) (A) (A) (A) (A) (A) (A) (A) (A) (A) (A)
                 (A) (A) (A) (A) (A) (A) (A) (A) (A) (A) (A) (A)
                 (A) (A) (A) (A) (A) (A) (A) (A) (A) (A) (A) (A)
                 (A) (A) (A) (A) (A) (A) (A) (A) (A) (A) (A) (A)
                 (A) (A) (A) (A) (A) (A) (A) (A) (A) (A) (A) (A)
                 (A) (A) (A) (A) (A) (A) (A) (A) (A) (A) (A) (A)
                 (A) (A) (A) (A) (A) (A) (A) (A) (A) (A) (A) (A)
                 (A) (A) (A) (A) (A) (A) (A) (A) (A) (A) (A) (A)
                 (A) (A) (A) (A) (A) (A) (A) (A) (A) (A) (A) (A)
                 (A) (A) (A) (A) (A) (A) (A) (A) (A) (A) (A) (A)
                 (A) (A) (A) (A) (A) (A) (A) (A) (A) (A) (A) (A)
                 (A) (A) (A) (A) (A) (A) (A) (A) (A) (A) (A) (A)
                 (A) (A) (A) (A) (A) (A) (A) (A) (A) (A) (A) (A)
                 (A) (A) (A) (A) (A) (A) (A) (A) (A) (A) (A) (A)
                 (A) (A) (A) (A) (A) (A) (A) (A) (A) (A) (A) (A)
                 (A) (A) (A) (A) (A) (A) (A) (A) (A) (A) (A) (A)
                 (A) (A) (A) (A) (A) (A) (A) (A) (A) (A) (A) (A)
                 (A) (A) (A) (A) (A) (A) (A) (A) (A) (A) (A) (A)
                 (A) (A) (A) (A) (A) (A) (A) (A) (A) (A) (A) (A)
                 (A) (A) (A) (A) (A) (A) (A) (A) (A) (A) (A) (A)
                 (A) (A) (A) (A) (A) (A) (A) (A) (A) (A) (A) (A)
                 (A) (A) (A) (A) (A) (A) (A) (A) (A) (A) (A) (A)
                 (A) (A) (A) (A) (A) (A) (A) (A) (A) (A) (A) (A)
                 (A) (A) (A) (A) (A) (A) (A) (A) (A) (A) (A) (A)
                 (A) (A) (A) (A) (A) (A) (A) (A) (A) (A) (A) (A)
                 (A) (A) (A) (A) (A) (A) (A) (A) (A) (A) (A) (A)
                 (A) (A) (A) (A) (A) (A) (A) (A) (A) (A) (A) (A)
                 (A) (A) (A) (A) (A) (A) (A) (A) (A) (A) (A) (A)
                 (A) (A) (A) (A) (A) (A) (A) (A) (A) (A) (A) (A)
                 (A) (A) (A) (A) (A) (A) (A) (A) (A) (A) (A) (A)
                 (A) (A) (A) (A) (A) (A) (A) (A) (A) (A) (A) (A)
                 (A) (A) (A) (A) (A) (A) (A) (A) (A) (A) (A) (A)
                 (A) (A) (A) (A) (A) (A) (A) (A) (A) (A) (A) (A)
                 (A) (A) (A) (A) (A) (A) (A) (A) (A) (A) (A) (A)
                 (A) (A) (A) (A) (A) (A) (A) (A) (A) (A) (A) (A)
                 (A) (A) (A) (A) (A) (A) (A) (A) (A) (A) (A) (A)
                 (A) (A) (A) (A) (A) (A) (A) (A) (A) (A) (A) (A)
                 (A) (A) (A) (A) (A) (A) (A) (A) (A) (A) (A) (A)
                 (A) (A) (A) (A) (A) (A) (A) (A) (A) (A) (A) (A)
                 (A) (A) (A) (A) (A) (A) (A) (A) (A) (A) (A) (A)
                 (A) (A) (A) (A) (A) (A) (A) (A) (A) (A) (A) (A)
                 (A) (A) (A) (A) (A) (A) (A) (A) (A) (A) (A) (A)
                 (A) (A) (A) (A) (A) (A) (A) (A) (A) (A) (A) (A)
                 (A) (A) (A) (A) (A) (A) (A) (A) (A) (A) (A) (A)
                 (A) (A) (A) (A) (A) (A) (A) (A) (A) (A) (A) (A)
 The electronic state is 1-A.
 Alpha  occ. eigenvalues -- -235.72127 -89.05379 -89.04945 -27.49146 -23.54938
 Alpha  occ. eigenvalues --  -23.54718 -23.54691 -19.36243 -19.36130 -19.36082
 Alpha  occ. eigenvalues --  -14.52107 -14.52093 -14.52033 -10.43672 -10.43662
 Alpha  occ. eigenvalues --  -10.43612 -10.41112 -10.38144 -10.38098 -10.37994
 Alpha  occ. eigenvalues --  -10.37974 -10.37966 -10.37262 -10.37061 -10.36871
 Alpha  occ. eigenvalues --  -10.36721 -10.35910 -10.35804 -10.35749 -10.35717
 Alpha  occ. eigenvalues --  -10.35697 -10.35657 -10.35456 -10.35394 -10.34598
 Alpha  occ. eigenvalues --  -10.34583 -10.34414 -10.34107 -10.34026 -10.33957
 Alpha  occ. eigenvalues --  -10.33833 -10.33754 -10.33629 -10.33514 -10.33400
 Alpha  occ. eigenvalues --   -8.10439  -8.10077  -6.05903  -6.05538  -6.05510
 Alpha  occ. eigenvalues --   -6.05143  -6.04878  -6.04512  -3.28373  -2.13926
 Alpha  occ. eigenvalues --   -2.13405  -2.13383  -1.25228  -1.25117  -1.25079
 Alpha  occ. eigenvalues --   -1.09960  -1.09509  -1.07943  -1.02451  -1.00172
 Alpha  occ. eigenvalues --   -1.00030  -0.96043  -0.94892  -0.93380  -0.92614
 Alpha  occ. eigenvalues --   -0.91253  -0.90508  -0.89810  -0.88409  -0.87681
 Alpha  occ. eigenvalues --   -0.86788  -0.84151  -0.80065  -0.77530  -0.77378
 Alpha  occ. eigenvalues --   -0.77229  -0.76852  -0.76439  -0.74010  -0.73716
 Alpha  occ. eigenvalues --   -0.71760  -0.71218  -0.70179  -0.68335  -0.68000
 Alpha  occ. eigenvalues --   -0.66919  -0.66809  -0.66231  -0.66003  -0.63915
 Alpha  occ. eigenvalues --   -0.62962  -0.62450  -0.62058  -0.61501  -0.60595
 Alpha  occ. eigenvalues --   -0.59747  -0.59392  -0.59275  -0.59045  -0.58661
 Alpha  occ. eigenvalues --   -0.58390  -0.58149  -0.58138  -0.57314  -0.57091
 Alpha  occ. eigenvalues --   -0.56302  -0.56255  -0.56235  -0.56059  -0.55222
 Alpha  occ. eigenvalues --   -0.55142  -0.54895  -0.54871  -0.54133  -0.53888
 Alpha  occ. eigenvalues --   -0.53730  -0.53484  -0.53312  -0.52999  -0.52603
 Alpha  occ. eigenvalues --   -0.52262  -0.51060  -0.50445  -0.49913  -0.49621
 Alpha  occ. eigenvalues --   -0.49534  -0.48780  -0.48421  -0.47800  -0.46580
 Alpha  occ. eigenvalues --   -0.46451  -0.45972  -0.45577  -0.45191  -0.43630
 Alpha  occ. eigenvalues --   -0.43010  -0.41918  -0.41240  -0.41032  -0.39816
 Alpha  occ. eigenvalues --   -0.38735  -0.38058  -0.37999  -0.37477  -0.36782
 Alpha  occ. eigenvalues --   -0.35881  -0.34485  -0.33818  -0.33576  -0.32673
 Alpha  occ. eigenvalues --   -0.31426
 Alpha virt. eigenvalues --   -0.02498  -0.01278  -0.01118  -0.00372   0.00762
 Alpha virt. eigenvalues --    0.01345   0.01843   0.02144   0.02328   0.02446
 Alpha virt. eigenvalues --    0.02582   0.03369   0.03561   0.04869   0.05433
 Alpha virt. eigenvalues --    0.05755   0.07287   0.08071   0.08375   0.08794
 Alpha virt. eigenvalues --    0.09394   0.10087   0.11386   0.11525   0.12762
 Alpha virt. eigenvalues --    0.14092   0.14308   0.14760   0.15184   0.15293
 Alpha virt. eigenvalues --    0.15980   0.17020   0.17384   0.17707   0.18315
 Alpha virt. eigenvalues --    0.18544   0.18685   0.19114   0.19445   0.19581
 Alpha virt. eigenvalues --    0.20395   0.20660   0.21284   0.21594   0.21963
 Alpha virt. eigenvalues --    0.22347   0.22624   0.23235   0.24483   0.25370
 Alpha virt. eigenvalues --    0.26025   0.26553   0.27455   0.28476   0.28910
 Alpha virt. eigenvalues --    0.29778   0.30074   0.30293   0.30434   0.30622
 Alpha virt. eigenvalues --    0.31045   0.31947   0.32315   0.33064   0.33259
 Alpha virt. eigenvalues --    0.33704   0.34353   0.34606   0.34808   0.35058
 Alpha virt. eigenvalues --    0.35402   0.35865   0.36183   0.37149   0.37323
 Alpha virt. eigenvalues --    0.37584   0.38238   0.38404   0.39036   0.39611
 Alpha virt. eigenvalues --    0.39970   0.40705   0.41116   0.41541   0.42494
 Alpha virt. eigenvalues --    0.42974   0.43888   0.44202   0.45074   0.45351
 Alpha virt. eigenvalues --    0.45836   0.46283   0.46506   0.46957   0.47410
 Alpha virt. eigenvalues --    0.47723   0.48317   0.48480   0.48505   0.48866
 Alpha virt. eigenvalues --    0.49634   0.49962   0.50571   0.50979   0.51259
 Alpha virt. eigenvalues --    0.51619   0.51876   0.52291   0.52957   0.52994
 Alpha virt. eigenvalues --    0.53335   0.53627   0.53769   0.54000   0.54252
 Alpha virt. eigenvalues --    0.54659   0.55221   0.55474   0.55960   0.56403
 Alpha virt. eigenvalues --    0.56796   0.57453   0.58284   0.58489   0.58931
 Alpha virt. eigenvalues --    0.59234   0.59530   0.59817   0.60053   0.60461
 Alpha virt. eigenvalues --    0.60861   0.61768   0.62216   0.62500   0.62599
 Alpha virt. eigenvalues --    0.62976   0.63478   0.63620   0.64360   0.64566
 Alpha virt. eigenvalues --    0.65124   0.65603   0.65624   0.66419   0.66981
 Alpha virt. eigenvalues --    0.67760   0.68221   0.68627   0.68854   0.69159
 Alpha virt. eigenvalues --    0.69673   0.69895   0.70243   0.70876   0.70911
 Alpha virt. eigenvalues --    0.71313   0.71460   0.71508   0.71810   0.71948
 Alpha virt. eigenvalues --    0.72375   0.72754   0.72896   0.73342   0.73674
 Alpha virt. eigenvalues --    0.74101   0.74173   0.74543   0.74606   0.74928
 Alpha virt. eigenvalues --    0.75510   0.75919   0.76367   0.76528   0.76775
 Alpha virt. eigenvalues --    0.77128   0.77690   0.77851   0.78160   0.78486
 Alpha virt. eigenvalues --    0.78682   0.79214   0.79757   0.80041   0.80393
 Alpha virt. eigenvalues --    0.80564   0.81282   0.81665   0.81912   0.82248
 Alpha virt. eigenvalues --    0.82500   0.82608   0.83022   0.83855   0.84036
 Alpha virt. eigenvalues --    0.84084   0.84149   0.84650   0.85369   0.85693
 Alpha virt. eigenvalues --    0.86047   0.86582   0.87063   0.87504   0.87705
 Alpha virt. eigenvalues --    0.88257   0.88834   0.89603   0.89961   0.90199
 Alpha virt. eigenvalues --    0.90412   0.91294   0.91879   0.92572   0.93365
 Alpha virt. eigenvalues --    0.93482   0.94695   0.94883   0.95025   0.96235
 Alpha virt. eigenvalues --    0.97413   0.97678   0.98708   0.99048   0.99654
 Alpha virt. eigenvalues --    1.01134   1.02218   1.02700   1.04391   1.05161
 Alpha virt. eigenvalues --    1.05263   1.06398   1.07051   1.07786   1.08461
 Alpha virt. eigenvalues --    1.08658   1.09678   1.10546   1.10777   1.11371
 Alpha virt. eigenvalues --    1.11942   1.12774   1.13119   1.13303   1.14711
 Alpha virt. eigenvalues --    1.15315   1.16321   1.17944   1.18218   1.18840
 Alpha virt. eigenvalues --    1.19779   1.20194   1.21108   1.22302   1.22592
 Alpha virt. eigenvalues --    1.23140   1.23881   1.24750   1.24969   1.25558
 Alpha virt. eigenvalues --    1.26065   1.26525   1.27287   1.27967   1.28056
 Alpha virt. eigenvalues --    1.28175   1.28415   1.28996   1.29542   1.29812
 Alpha virt. eigenvalues --    1.30183   1.30537   1.31166   1.32146   1.32638
 Alpha virt. eigenvalues --    1.32683   1.33338   1.33531   1.33915   1.34463
 Alpha virt. eigenvalues --    1.34815   1.35000   1.35099   1.35655   1.36162
 Alpha virt. eigenvalues --    1.36737   1.36912   1.37793   1.38445   1.38930
 Alpha virt. eigenvalues --    1.39994   1.41971   1.43185   1.44268   1.44567
 Alpha virt. eigenvalues --    1.46227   1.48118   1.48968   1.49878   1.50888
 Alpha virt. eigenvalues --    1.54045   1.55140   1.56474   1.56936   1.57310
 Alpha virt. eigenvalues --    1.57792   1.59646   1.60312   1.60677   1.63782
 Alpha virt. eigenvalues --    1.64259   1.64631   1.65559   1.65825   1.66991
 Alpha virt. eigenvalues --    1.67379   1.68787   1.68904   1.69420   1.70401
 Alpha virt. eigenvalues --    1.71041   1.71230   1.71652   1.71935   1.72379
 Alpha virt. eigenvalues --    1.72766   1.73681   1.74432   1.74641   1.75306
 Alpha virt. eigenvalues --    1.75620   1.75949   1.76198   1.76584   1.77049
 Alpha virt. eigenvalues --    1.77444   1.77818   1.78382   1.78999   1.79375
 Alpha virt. eigenvalues --    1.79463   1.80032   1.80144   1.80773   1.81001
 Alpha virt. eigenvalues --    1.81227   1.81508   1.82071   1.82275   1.82700
 Alpha virt. eigenvalues --    1.82870   1.83498   1.83764   1.84950   1.85268
 Alpha virt. eigenvalues --    1.86599   1.86668   1.87342   1.87765   1.88129
 Alpha virt. eigenvalues --    1.88385   1.88791   1.89211   1.89981   1.90721
 Alpha virt. eigenvalues --    1.91015   1.91591   1.92286   1.93059   1.93245
 Alpha virt. eigenvalues --    1.94137   1.94945   1.95777   1.96630   1.97093
 Alpha virt. eigenvalues --    1.98125   1.98626   1.99163   1.99660   2.00688
 Alpha virt. eigenvalues --    2.00972   2.01219   2.01549   2.02085   2.02718
 Alpha virt. eigenvalues --    2.02802   2.03269   2.03815   2.04404   2.04807
 Alpha virt. eigenvalues --    2.05115   2.06231   2.07322   2.07888   2.08244
 Alpha virt. eigenvalues --    2.09117   2.09405   2.10113   2.10309   2.11758
 Alpha virt. eigenvalues --    2.11864   2.12949   2.14187   2.15169   2.16485
 Alpha virt. eigenvalues --    2.16697   2.18156   2.18390   2.18920   2.19873
 Alpha virt. eigenvalues --    2.20212   2.20572   2.21395   2.21941   2.22810
 Alpha virt. eigenvalues --    2.23324   2.24441   2.25214   2.26335   2.27494
 Alpha virt. eigenvalues --    2.28215   2.28798   2.29182   2.29923   2.30235
 Alpha virt. eigenvalues --    2.31050   2.31794   2.32174   2.33077   2.33415
 Alpha virt. eigenvalues --    2.34010   2.34065   2.35301   2.35829   2.36166
 Alpha virt. eigenvalues --    2.36525   2.37183   2.37640   2.38340   2.38950
 Alpha virt. eigenvalues --    2.39173   2.40279   2.40651   2.41259   2.42664
 Alpha virt. eigenvalues --    2.44131   2.45281   2.46259   2.46441   2.47629
 Alpha virt. eigenvalues --    2.48363   2.49495   2.52028   2.52561   2.54837
 Alpha virt. eigenvalues --    2.55140   2.57182   2.57494   2.59306   2.59600
 Alpha virt. eigenvalues --    2.61138   2.64546   2.65659   2.65973   2.66370
 Alpha virt. eigenvalues --    2.67443   2.67831   2.67939   2.67992   2.68028
 Alpha virt. eigenvalues --    2.68322   2.68656   2.68792   2.68989   2.69085
 Alpha virt. eigenvalues --    2.69419   2.70626   2.70976   2.75361   2.75769
 Alpha virt. eigenvalues --    2.76044   2.78368   2.78746   2.79034   2.79836
 Alpha virt. eigenvalues --    2.81042   2.82308   2.82658   2.83685   2.84282
 Alpha virt. eigenvalues --    2.84659   2.84849   2.86006   2.86323   2.88068
 Alpha virt. eigenvalues --    2.90223   2.91986   2.92433   2.92615   2.94910
 Alpha virt. eigenvalues --    2.97235   2.98355   2.99244   3.01361   3.02524
 Alpha virt. eigenvalues --    3.03309   3.03576   3.04777   3.05757   3.06426
 Alpha virt. eigenvalues --    3.06909   3.08170   3.08478   3.14560   3.14948
 Alpha virt. eigenvalues --    3.17191   3.18685   3.20400   3.20841   3.21011
 Alpha virt. eigenvalues --    3.21548   3.22289   3.22559   3.24054   3.28024
 Alpha virt. eigenvalues --    3.28505   3.31236   3.35999   3.37526   3.38873
 Alpha virt. eigenvalues --    3.43654   3.48980   3.50601   3.51191   3.53922
 Alpha virt. eigenvalues --    3.56289   3.57394   3.59180   3.60004   3.60267
 Alpha virt. eigenvalues --    3.61327   3.62051   3.64466   3.68054   3.69028
 Alpha virt. eigenvalues --    3.69261   3.77379   3.90235   3.90521   3.95940
 Alpha virt. eigenvalues --    4.02422   4.05335
          Condensed to atoms (all electrons):
 Mulliken charges:
               1
     1  Mn  -0.725187
     2  C    0.368117
     3  C    0.292381
     4  C    0.368036
     5  N    0.094192
     6  N   -0.210891
     7  N   -0.211363
     8  C    0.103701
     9  C   -0.037992
    10  C    0.059846
    11  C   -0.075567
    12  C    0.199459
    13  C    0.181368
    14  C   -0.100470
    15  C    0.105869
    16  C   -0.037870
    17  C    0.080706
    18  C   -0.019463
    19  C   -0.000202
    20  C   -0.082080
    21  C   -0.061633
    22  C   -0.092234
    23  C   -0.084791
    24  C   -0.003235
    25  C   -0.009876
    26  C   -0.014452
    27  C   -0.016066
    28  C   -0.001272
    29  C   -0.000731
    30  S    0.110233
    31  S    0.103239
    32  H    0.068953
    33  H    0.062090
    34  H   -0.040223
    35  H    0.007330
    36  H    0.076191
    37  H    0.069346
    38  H    0.061343
    39  H    0.041483
    40  H    0.043168
    41  H    0.055471
    42  H    0.054906
    43  H    0.044637
    44  H    0.046283
    45  O   -0.044724
    46  O   -0.043335
    47  O   -0.042357
    48  H    0.075470
    49  C   -0.001898
    50  C   -0.113235
    51  C    0.029910
    52  C    0.030150
    53  C   -0.017643
    54  H    0.059422
    55  C   -0.008893
    56  H    0.026284
    57  C    0.004488
    58  H    0.061610
    59  H    0.049505
    60  H    0.062498
 Sum of Mulliken charges =   1.00000
 Mulliken charges with hydrogens summed into heavy atoms:
               1
     1  Mn  -0.725187
     2  C    0.368117
     3  C    0.292381
     4  C    0.368036
     5  N    0.094192
     6  N   -0.210891
     7  N   -0.211363
     8  C    0.179171
     9  C    0.030961
    10  C    0.121936
    11  C   -0.075567
    12  C    0.159236
    13  C    0.188698
    14  C   -0.100470
    15  C    0.182060
    16  C    0.031476
    17  C    0.142049
    18  C   -0.019463
    19  C   -0.000202
    20  C   -0.082080
    21  C   -0.061633
    22  C   -0.092234
    23  C   -0.084791
    24  C    0.038248
    25  C    0.033292
    26  C    0.041019
    27  C    0.038839
    28  C    0.043365
    29  C    0.045552
    30  S    0.110233
    31  S    0.103239
    45  O   -0.044724
    46  O   -0.043335
    47  O   -0.042357
    49  C   -0.001898
    50  C   -0.113235
    51  C    0.089332
    52  C    0.056435
    53  C    0.043967
    55  C    0.040612
    57  C    0.066986
 Electronic spatial extent (au):  <R**2>=          18721.7082
 Charge=              1.0000 electrons
 Dipole moment (field-independent basis, Debye):
    X=             -0.9508    Y=              1.6268    Z=             -1.2821  Tot=              2.2791
 Quadrupole moment (field-independent basis, Debye-Ang):
   XX=           -218.0170   YY=           -204.5671   ZZ=           -210.6115
   XY=            -16.3461   XZ=             25.0368   YZ=              3.6030
 Traceless Quadrupole moment (field-independent basis, Debye-Ang):
   XX=             -6.9518   YY=              6.4981   ZZ=              0.4537
   XY=            -16.3461   XZ=             25.0368   YZ=              3.6030
 Octapole moment (field-independent basis, Debye-Ang**2):
  XXX=             22.9329  YYY=            -72.9752  ZZZ=            -25.9909  XYY=              8.7179
  XXY=             32.8678  XXZ=            -29.7375  XZZ=             24.9988  YZZ=            118.8733
  YYZ=            -27.1608  XYZ=            -12.3822
 Hexadecapole moment (field-independent basis, Debye-Ang**3):
 XXXX=         -12342.1267 YYYY=          -5655.3783 ZZZZ=          -5113.6277 XXXY=           -209.1121
 XXXZ=            301.9686 YYYX=           -304.5192 YYYZ=            -35.8575 ZZZX=            345.6892
 ZZZY=            -96.8727 XXYY=          -2924.1582 XXZZ=          -2931.5142 YYZZ=          -1627.6988
 XXYZ=             85.8717 YYXZ=            145.3271 ZZXY=              2.6489
 N-N= 5.763330203500D+03 E-N=-1.987918684424D+04  KE= 3.546249970790D+03


 We find comfort among those who agree with us -- growth among those who don't.
 -- Frank A. Clark
 Error termination request processed by link 9999.
 Error termination via Lnk1e in /home1/apps/gaussian/16rA.03/g16/l9999.exe at Sat Oct  1 08:31:26 2022.
 Job cpu time:      28 days  6 hours 45 minutes 44.4 seconds.
 Elapsed time:       1 days  5 hours 37 minutes 43.4 seconds.
 File lengths (MBytes):  RWF=    786 Int=      0 D2E=      0 Chk=     45 Scr=      1
