 Entering Gaussian System, Link 0=g16
 Initial command:
 /home1/apps/gaussian/16rA.03/g16/l1.exe "/tmp/Gau-144709.inp" -scrdir="/tmp/"
 Entering Link 1 = /home1/apps/gaussian/16rA.03/g16/l1.exe PID=    144711.
  
 Copyright (c) 1988,1990,1992,1993,1995,1998,2003,2009,2016,
            Gaussian, Inc.  All Rights Reserved.
  
 This is part of the Gaussian(R) 16 program.  It is based on
 the Gaussian(R) 09 system (copyright 2009, Gaussian, Inc.),
 the Gaussian(R) 03 system (copyright 2003, Gaussian, Inc.),
 the Gaussian(R) 98 system (copyright 1998, Gaussian, Inc.),
 the Gaussian(R) 94 system (copyright 1995, Gaussian, Inc.),
 the Gaussian 92(TM) system (copyright 1992, Gaussian, Inc.),
 the Gaussian 90(TM) system (copyright 1990, Gaussian, Inc.),
 the Gaussian 88(TM) system (copyright 1988, Gaussian, Inc.),
 the Gaussian 86(TM) system (copyright 1986, Carnegie Mellon
 University), and the Gaussian 82(TM) system (copyright 1983,
 Carnegie Mellon University). Gaussian is a federally registered
 trademark of Gaussian, Inc.
  
 This software contains proprietary and confidential information,
 including trade secrets, belonging to Gaussian, Inc.
  
 This software is provided under written license and may be
 used, copied, transmitted, or stored only in accord with that
 written license.
  
 The following legend is applicable only to US Government
 contracts under FAR:
  
                    RESTRICTED RIGHTS LEGEND
  
 Use, reproduction and disclosure by the US Government is
 subject to restrictions as set forth in subparagraphs (a)
 and (c) of the Commercial Computer Software - Restricted
 Rights clause in FAR 52.227-19.
  
 Gaussian, Inc.
 340 Quinnipiac St., Bldg. 40, Wallingford CT 06492
  
  
 ---------------------------------------------------------------
 Warning -- This program may not be used in any manner that
 competes with the business of Gaussian, Inc. or will provide
 assistance to any competitor of Gaussian, Inc.  The licensee
 of this program is prohibited from giving any competitor of
 Gaussian, Inc. access to this program.  By using this program,
 the user acknowledges that Gaussian, Inc. is engaged in the
 business of creating and licensing software in the field of
 computational chemistry and represents and warrants to the
 licensee that it is not a competitor of Gaussian, Inc. and that
 it will not use this program in any manner prohibited above.
 ---------------------------------------------------------------
  

 Cite this work as:
 Gaussian 16, Revision A.03,
 M. J. Frisch, G. W. Trucks, H. B. Schlegel, G. E. Scuseria, 
 M. A. Robb, J. R. Cheeseman, G. Scalmani, V. Barone, 
 G. A. Petersson, H. Nakatsuji, X. Li, M. Caricato, A. V. Marenich, 
 J. Bloino, B. G. Janesko, R. Gomperts, B. Mennucci, H. P. Hratchian, 
 J. V. Ortiz, A. F. Izmaylov, J. L. Sonnenberg, D. Williams-Young, 
 F. Ding, F. Lipparini, F. Egidi, J. Goings, B. Peng, A. Petrone, 
 T. Henderson, D. Ranasinghe, V. G. Zakrzewski, J. Gao, N. Rega, 
 G. Zheng, W. Liang, M. Hada, M. Ehara, K. Toyota, R. Fukuda, 
 J. Hasegawa, M. Ishida, T. Nakajima, Y. Honda, O. Kitao, H. Nakai, 
 T. Vreven, K. Throssell, J. A. Montgomery, Jr., J. E. Peralta, 
 F. Ogliaro, M. J. Bearpark, J. J. Heyd, E. N. Brothers, K. N. Kudin, 
 V. N. Staroverov, T. A. Keith, R. Kobayashi, J. Normand, 
 K. Raghavachari, A. P. Rendell, J. C. Burant, S. S. Iyengar, 
 J. Tomasi, M. Cossi, J. M. Millam, M. Klene, C. Adamo, R. Cammi, 
 J. W. Ochterski, R. L. Martin, K. Morokuma, O. Farkas, 
 J. B. Foresman, and D. J. Fox, Gaussian, Inc., Wallingford CT, 2016.
 
 ******************************************
 Gaussian 16:  ES64L-G16RevA.03 25-Dec-2016
                27-Sep-2022 
 ******************************************
 %NProcShared=24
 Will use up to   24 processors via shared memory.
 %Chk=checkpoint.chk
 -------------------------------------------------------
 # wB97XD Gen Opt=Restart SCRF=(Solvent=TetraHydroFuran)
 -------------------------------------------------------
 1/18=20,19=15,26=3,35=1/3(2);
 2/9=110/2;
 99//99;
 2/9=110/2;
 3/5=7,6=1,11=2,25=1,30=1,70=2205,71=1,72=20,74=-58,82=7/1,2,3;
 4/5=5,16=3,69=1/1;
 5/5=2,38=5,53=20/2;
 7//1,2,3,16;
 1/18=20,19=15,26=3/3(-5);
 2/9=110/2;
 6/7=2,8=2,9=2,10=2,19=2,28=1/1;
 99/9=1/99;

 GradGradGradGradGradGradGradGradGradGradGradGradGradGradGradGradGradGrad
 Berny optimization.
 Restoring state from the checkpoint file "checkpoint.chk".
 ONIOM results not found on unit 2.
 Title:  Mn Reactant Geometry Optimization
 Route:  # wB97XD Gen Opt SCRF=(Solvent=TetraHydroFuran)
 Using GEDIIS/GDIIS optimizer.
 FormGI is forming the generalized inverse of G from B-inverse, IUseBI=4.
 Internal  Forces:  Max     0.000207979 RMS     0.000034703
 Search for a local minimum.
 Step number 185 out of a maximum of  356
 All quantities printed in internal units (Hartrees-Bohrs-Radians)
 Mixed Optimization -- En-DIIS/RFO-DIIS
 Swapping is turned off.
 Update second derivatives using D2CorX and points   87   88   89   90   91
                                                     92   93   94   95   96
                                                     97   98   99   86  102
                                                    103  104  105  106  107
                                                    108  109  110  111  112
                                                    113  114  115  116  117
                                                    118  119  120  121  122
                                                    123  124  125  126  127
                                                    128  130  131  132  133
                                                    134  135  136  137  138
                                                    139  140  141  142  143
                                                    144  145  146  147  148
                                                    149  150  151  152  153
                                                    154  155  156  157  158
                                                    159  160  161  162  163
                                                    164  165  166  167  168
                                                    169  170  171  172  173
                                                    174  175  101  176  177
                                                    178  179  180  181  182
                                                    183  184  185
 DE= -1.33D-06 DEPred=-3.45D-07 R= 3.84D+00
 TightC=F SS=  1.41D+00  RLast= 9.92D-03 DXNew= 2.6760D-01 2.9773D-02
 Trust test= 3.84D+00 RLast= 9.92D-03 DXMaxT set to 1.59D-01
 ITU=  1  1  1  1 -1  1 -1  1 -1  0  0 -1 -1  1 -1 -1 -1 -1 -1 -1
 ITU= -1 -1 -1  1  1 -1  1 -1 -1  1 -1 -1  1  1 -1 -1  1  1 -1  0
 ITU=  1 -1  1 -1  1 -1 -1 -1  1  1 -1  1  0 -1  0 -1 -1 -1  1  1
 ITU=  1 -1 -1  1  1 -1 -1  1 -1 -1 -1 -1 -1 -1 -1 -1 -1 -1  1 -1
 ITU= -1 -1  1 -1  0 -1  0  1  1 -1 -1  0 -1 -1 -1  0 -1 -1 -1  1
     Eigenvalues ---    0.00000   0.00000   0.00006   0.00036   0.00100
     Eigenvalues ---    0.00125   0.00262   0.00332   0.00461   0.00593
     Eigenvalues ---    0.00730   0.00793   0.00961   0.01022   0.01140
     Eigenvalues ---    0.01349   0.01398   0.01491   0.01596   0.01646
     Eigenvalues ---    0.01711   0.01761   0.01801   0.01886   0.01922
     Eigenvalues ---    0.01951   0.02003   0.02041   0.02069   0.02105
     Eigenvalues ---    0.02124   0.02145   0.02154   0.02159   0.02169
     Eigenvalues ---    0.02175   0.02183   0.02192   0.02217   0.02223
     Eigenvalues ---    0.02226   0.02248   0.02274   0.02289   0.02331
     Eigenvalues ---    0.02364   0.02601   0.03283   0.03476   0.03882
     Eigenvalues ---    0.03906   0.04302   0.04610   0.04903   0.05241
     Eigenvalues ---    0.05397   0.05934   0.06377   0.06709   0.07568
     Eigenvalues ---    0.08062   0.08717   0.09105   0.09497   0.09704
     Eigenvalues ---    0.10785   0.11684   0.12255   0.12703   0.13352
     Eigenvalues ---    0.13774   0.14252   0.14284   0.15167   0.15329
     Eigenvalues ---    0.15529   0.15584   0.15766   0.15861   0.15895
     Eigenvalues ---    0.15943   0.15983   0.16002   0.16019   0.16044
     Eigenvalues ---    0.16062   0.16140   0.16521   0.17150   0.17418
     Eigenvalues ---    0.18990   0.19549   0.20200   0.20521   0.21016
     Eigenvalues ---    0.21272   0.21710   0.21770   0.22042   0.22089
     Eigenvalues ---    0.22160   0.22199   0.22360   0.22537   0.22552
     Eigenvalues ---    0.23051   0.23316   0.23439   0.23857   0.24411
     Eigenvalues ---    0.25089   0.25273   0.25962   0.26421   0.26862
     Eigenvalues ---    0.26998   0.30440   0.31997   0.32081   0.32925
     Eigenvalues ---    0.33588   0.34048   0.34391   0.34466   0.34539
     Eigenvalues ---    0.34595   0.34612   0.34630   0.34660   0.34677
     Eigenvalues ---    0.34695   0.34780   0.34807   0.34825   0.34840
     Eigenvalues ---    0.34958   0.35404   0.36678   0.37479   0.38172
     Eigenvalues ---    0.39142   0.40366   0.40886   0.41252   0.41961
     Eigenvalues ---    0.42281   0.43217   0.43576   0.43768   0.44440
     Eigenvalues ---    0.44658   0.44782   0.45033   0.45537   0.45704
     Eigenvalues ---    0.45877   0.46040   0.46274   0.46588   0.46885
     Eigenvalues ---    0.47056   0.47486   0.48078   0.49289   0.51744
     Eigenvalues ---    0.52861   0.53699   0.55945   0.63323   0.69897
     Eigenvalues ---    1.17031   1.25646   1.35656   1.39647
 Eigenvalue     1 is   2.09D-08 Eigenvector:
                          D3        D5        D7        D1        D4
   1                   -0.38866  -0.37642  -0.36517  -0.35033  -0.29274
                          D6        D8        D2        D9        D13
   1                   -0.28051  -0.26926  -0.25442   0.09133   0.09047
 Eigenvalue     2 is   3.82D-06 Eigenvector:
                          D20       D18       D72       D70       D71
   1                    0.26444   0.24423  -0.23762  -0.22361  -0.22032
                          D22       D69       D38       D33       D9
   1                    0.21203  -0.20631  -0.19114   0.18114   0.17887
 Eigenvalue     3 is   6.21D-05 Eigenvector:
                          D58       D60       D57       D59       D14
   1                    0.26182   0.24569   0.24221   0.22608  -0.18189
                          D63       D34       D16       D10       D12
   1                   -0.17691   0.17269  -0.17151  -0.16646  -0.16542
 En-DIIS/RFO-DIIS/Sim-DIIS IScMMF=       -3 using points:   185  184  183  182  181  180  179  178  177  176
 RFO step:  Lambda=-1.01165562D-05.
 DIIS inversion failure, remove point  10.
 DIIS inversion failure, remove point   9.
 DIIS inversion failure, remove point   8.
 RFO-DIIS uses    6 points instead of   10
 DidBck=F Rises=F RFO-DIIS coefs:    2.67608   -2.00000    0.43349    0.03758   -0.03374
                  RFO-DIIS coefs:    0.00000   -0.11342    0.00000    0.00000    0.00000
 Iteration  1 RMS(Cart)=  0.02095542 RMS(Int)=  0.00017265
 Iteration  2 RMS(Cart)=  0.00042096 RMS(Int)=  0.00000676
 Iteration  3 RMS(Cart)=  0.00000013 RMS(Int)=  0.00000676
 Variable       Old X    -DE/DX   Delta X   Delta X   Delta X     New X
                                 (Linear)    (Quad)   (Total)
    R1        3.46626  -0.00002  -0.00009  -0.00153  -0.00163   3.46463
    R2        3.44760   0.00003   0.00004   0.00021   0.00025   3.44785
    R3        3.46349  -0.00003  -0.00009   0.00013   0.00004   3.46353
    R4        3.83652  -0.00001   0.00013  -0.00234  -0.00221   3.83430
    R5        4.06874   0.00007   0.00010   0.00062   0.00072   4.06946
    R6        4.08830   0.00004   0.00006  -0.00185  -0.00179   4.08651
    R7        2.15572   0.00001   0.00004   0.00004   0.00008   2.15580
    R8        2.16141   0.00002   0.00002   0.00040   0.00042   2.16183
    R9        2.15629  -0.00009   0.00004  -0.00019  -0.00015   2.15614
   R10        2.18290  -0.00017   0.00001  -0.00061  -0.00060   2.18230
   R11        2.54116   0.00004   0.00003   0.00013   0.00016   2.54132
   R12        2.51966  -0.00004   0.00002  -0.00065  -0.00064   2.51902
   R13        2.52326  -0.00005   0.00004   0.00045   0.00049   2.52374
   R14        2.54149  -0.00005  -0.00003  -0.00012  -0.00016   2.54133
   R15        2.62290  -0.00003  -0.00002   0.00063   0.00061   2.62351
   R16        2.06119  -0.00002   0.00000   0.00012   0.00012   2.06131
   R17        2.63422  -0.00004  -0.00003   0.00093   0.00090   2.63512
   R18        2.05989   0.00000  -0.00001   0.00013   0.00013   2.06001
   R19        2.63395  -0.00002   0.00000  -0.00043  -0.00043   2.63352
   R20        2.06330   0.00001  -0.00000  -0.00004  -0.00004   2.06326
   R21        2.63400  -0.00006   0.00005   0.00023   0.00028   2.63428
   R22        2.81484   0.00001  -0.00002  -0.00019  -0.00021   2.81462
   R23        2.04834  -0.00009  -0.00004   0.00021   0.00017   2.04852
   R24        2.63343   0.00003  -0.00001  -0.00141  -0.00142   2.63201
   R25        2.05214   0.00007   0.00003  -0.00217  -0.00213   2.05001
   R26        2.63199   0.00001   0.00003   0.00006   0.00009   2.63208
   R27        2.81602   0.00003   0.00002   0.00019   0.00021   2.81622
   R28        2.62333  -0.00003   0.00001  -0.00027  -0.00026   2.62307
   R29        2.05918   0.00000   0.00002   0.00023   0.00026   2.05944
   R30        2.63271   0.00001   0.00005  -0.00005   0.00000   2.63271
   R31        2.05997   0.00000  -0.00001   0.00004   0.00003   2.06000
   R32        2.06301  -0.00001  -0.00000   0.00041   0.00040   2.06342
   R33        2.66008  -0.00007   0.00001   0.00062   0.00063   2.66071
   R34        2.64036   0.00001   0.00003  -0.00064  -0.00061   2.63975
   R35        2.66277   0.00008   0.00003   0.00048   0.00051   2.66328
   R36        2.64484  -0.00004   0.00002  -0.00078  -0.00076   2.64408
   R37        2.65053  -0.00004  -0.00002  -0.00033  -0.00035   2.65019
   R38        3.36430   0.00002   0.00002  -0.00012  -0.00010   3.36420
   R39        2.64705  -0.00004   0.00003  -0.00065  -0.00062   2.64643
   R40        3.36654  -0.00004  -0.00003  -0.00073  -0.00076   3.36578
   R41        2.64003  -0.00002  -0.00001  -0.00000  -0.00001   2.64001
   R42        3.35578   0.00002  -0.00000  -0.00031  -0.00031   3.35547
   R43        2.64023  -0.00003   0.00000   0.00017   0.00017   2.64040
   R44        3.35482  -0.00000  -0.00001   0.00183   0.00182   3.35664
   R45        2.63290   0.00001  -0.00001   0.00006   0.00006   2.63295
   R46        2.06307   0.00000   0.00000  -0.00020  -0.00019   2.06288
   R47        2.63072  -0.00005   0.00001   0.00030   0.00031   2.63103
   R48        2.06340   0.00002  -0.00000   0.00022   0.00022   2.06361
   R49        2.62908   0.00003   0.00003  -0.00036  -0.00034   2.62874
   R50        2.06196   0.00000  -0.00000   0.00013   0.00013   2.06209
   R51        2.63014   0.00001  -0.00002   0.00017   0.00015   2.63030
   R52        2.06212  -0.00000  -0.00001   0.00011   0.00011   2.06222
   R53        2.06301   0.00000  -0.00001  -0.00016  -0.00017   2.06284
   R54        2.06306  -0.00000  -0.00001   0.00006   0.00005   2.06311
   R55        2.70563   0.00008  -0.00001  -0.00050  -0.00051   2.70512
   R56        2.64926   0.00005  -0.00001  -0.00001  -0.00002   2.64924
   R57        2.65718   0.00010   0.00004  -0.00241  -0.00237   2.65481
   R58        2.62870  -0.00002   0.00003   0.00029   0.00032   2.62902
   R59        2.06110   0.00005  -0.00003   0.00022   0.00019   2.06128
   R60        2.62508  -0.00004   0.00003   0.00001   0.00003   2.62511
   R61        2.06215   0.00008  -0.00007  -0.00014  -0.00021   2.06194
   R62        2.63849   0.00003  -0.00004   0.00054   0.00050   2.63899
   R63        2.06161   0.00002  -0.00001   0.00005   0.00003   2.06164
   R64        2.63826   0.00007  -0.00003   0.00032   0.00028   2.63854
   R65        2.06245   0.00003   0.00002   0.00088   0.00090   2.06335
   R66        2.06287  -0.00000   0.00000  -0.00005  -0.00005   2.06282
    A1        1.58042  -0.00003  -0.00003  -0.00234  -0.00236   1.57806
    A2        1.62266  -0.00004  -0.00019   0.00270   0.00254   1.62520
    A3        1.57458   0.00003   0.00006  -0.00863  -0.00857   1.56601
    A4        1.57210  -0.00003   0.00009  -0.00036  -0.00030   1.57180
    A5        1.56278   0.00003   0.00013   0.00092   0.00106   1.56383
    A6        1.60540   0.00005  -0.00006   0.00874   0.00867   1.61407
    A7        1.61008  -0.00002  -0.00020   0.00017  -0.00002   1.61006
    A8        1.54410  -0.00001   0.00002   0.00072   0.00076   1.54486
    A9        1.58176   0.00001  -0.00003  -0.00008  -0.00013   1.58163
   A10        1.52497  -0.00005   0.00001   0.00223   0.00224   1.52721
   A11        1.56556   0.00000   0.00004  -0.00126  -0.00121   1.56435
   A12        1.50535   0.00005   0.00014  -0.00249  -0.00233   1.50302
   A13        2.14633   0.00010  -0.00022   0.00328   0.00306   2.14939
   A14        2.09143  -0.00006   0.00023  -0.00322  -0.00300   2.08844
   A15        2.04502  -0.00005  -0.00002  -0.00028  -0.00031   2.04471
   A16        2.10762   0.00001  -0.00011   0.00090   0.00077   2.10839
   A17        2.13072  -0.00003   0.00004  -0.00130  -0.00126   2.12946
   A18        2.03991   0.00001   0.00006   0.00016   0.00022   2.04013
   A19        2.13981  -0.00001   0.00003  -0.00048  -0.00045   2.13936
   A20        2.04569   0.00007  -0.00005   0.00162   0.00157   2.04726
   A21        2.09765  -0.00006   0.00002  -0.00113  -0.00111   2.09654
   A22        2.08553   0.00001  -0.00001   0.00068   0.00066   2.08619
   A23        2.08433  -0.00000   0.00002  -0.00069  -0.00067   2.08366
   A24        2.11330  -0.00001  -0.00001   0.00001   0.00000   2.11331
   A25        2.06871   0.00001   0.00002  -0.00081  -0.00080   2.06792
   A26        2.10837  -0.00002  -0.00002  -0.00036  -0.00037   2.10800
   A27        2.10610   0.00002   0.00000   0.00117   0.00117   2.10727
   A28        2.04936  -0.00003   0.00000   0.00010   0.00010   2.04946
   A29        2.16718   0.00003  -0.00006   0.00134   0.00128   2.16846
   A30        2.06384  -0.00001   0.00007  -0.00139  -0.00133   2.06251
   A31        2.17784   0.00006  -0.00002   0.00083   0.00081   2.17865
   A32        2.04167  -0.00004  -0.00005  -0.00087  -0.00092   2.04075
   A33        2.06353  -0.00003   0.00007  -0.00003   0.00004   2.06357
   A34        2.17424   0.00000  -0.00001   0.00007   0.00007   2.17431
   A35        2.04698  -0.00006  -0.00007  -0.00030  -0.00037   2.04661
   A36        2.06194   0.00006   0.00008   0.00023   0.00031   2.06225
   A37        2.05601  -0.00002  -0.00002  -0.00021  -0.00023   2.05578
   A38        2.05264  -0.00003   0.00002   0.00098   0.00099   2.05363
   A39        2.17416   0.00005  -0.00000  -0.00064  -0.00064   2.17351
   A40        2.14483   0.00001  -0.00002  -0.00045  -0.00048   2.14435
   A41        2.04879  -0.00002  -0.00007  -0.00028  -0.00035   2.04844
   A42        2.08956   0.00001   0.00009   0.00072   0.00082   2.09038
   A43        2.08497   0.00000  -0.00001   0.00004   0.00003   2.08500
   A44        2.08306   0.00001   0.00002   0.00017   0.00019   2.08325
   A45        2.11493  -0.00001  -0.00002  -0.00016  -0.00017   2.11476
   A46        2.06412  -0.00001   0.00002   0.00018   0.00020   2.06432
   A47        2.10733   0.00002   0.00001  -0.00018  -0.00017   2.10716
   A48        2.11165  -0.00001  -0.00004   0.00005   0.00001   2.11166
   A49        2.09651   0.00002   0.00020  -0.00153  -0.00132   2.09519
   A50        2.10617  -0.00002  -0.00019   0.00152   0.00132   2.10749
   A51        2.07950  -0.00000  -0.00001   0.00010   0.00008   2.07958
   A52        2.13641   0.00005  -0.00004   0.00114   0.00109   2.13750
   A53        2.07043  -0.00004   0.00006  -0.00153  -0.00147   2.06896
   A54        2.07447  -0.00001  -0.00001   0.00043   0.00042   2.07489
   A55        2.09224   0.00002   0.00004  -0.00098  -0.00094   2.09130
   A56        2.10163   0.00004   0.00001   0.00069   0.00070   2.10233
   A57        2.08767  -0.00006  -0.00005  -0.00001  -0.00006   2.08761
   A58        2.09424   0.00002  -0.00002   0.00032   0.00029   2.09453
   A59        2.09408  -0.00001   0.00007  -0.00050  -0.00043   2.09365
   A60        2.09359  -0.00001  -0.00005   0.00045   0.00038   2.09398
   A61        2.09994  -0.00002  -0.00003   0.00079   0.00076   2.10070
   A62        2.11288   0.00001  -0.00001   0.00013   0.00013   2.11301
   A63        2.06957   0.00001   0.00004  -0.00105  -0.00100   2.06857
   A64        2.09624   0.00000   0.00003  -0.00063  -0.00061   2.09563
   A65        2.10803  -0.00002   0.00000  -0.00043  -0.00043   2.10760
   A66        2.07812   0.00002  -0.00003   0.00110   0.00107   2.07919
   A67        2.10490  -0.00001   0.00002  -0.00034  -0.00032   2.10458
   A68        2.07962  -0.00001  -0.00002  -0.00002  -0.00003   2.07958
   A69        2.09836   0.00002  -0.00001   0.00039   0.00038   2.09874
   A70        2.11117  -0.00001  -0.00004   0.00056   0.00052   2.11169
   A71        2.07788   0.00002   0.00006  -0.00143  -0.00137   2.07651
   A72        2.09356  -0.00001  -0.00002   0.00091   0.00089   2.09445
   A73        2.09609   0.00002   0.00003  -0.00065  -0.00062   2.09547
   A74        2.09437  -0.00002  -0.00002   0.00067   0.00064   2.09501
   A75        2.09245  -0.00000  -0.00001   0.00005   0.00004   2.09249
   A76        2.09837  -0.00001  -0.00001   0.00002   0.00001   2.09838
   A77        2.09391   0.00001  -0.00000   0.00001   0.00001   2.09392
   A78        2.09071   0.00000   0.00001  -0.00010  -0.00009   2.09062
   A79        2.09163  -0.00001  -0.00001   0.00032   0.00031   2.09195
   A80        2.08882  -0.00001   0.00000  -0.00003  -0.00002   2.08879
   A81        2.10267   0.00001   0.00001  -0.00030  -0.00029   2.10238
   A82        2.09074   0.00001  -0.00000   0.00023   0.00022   2.09096
   A83        2.08858   0.00000   0.00002  -0.00054  -0.00052   2.08806
   A84        2.10379  -0.00001  -0.00002   0.00035   0.00034   2.10413
   A85        1.76391   0.00006   0.00012  -0.00289  -0.00277   1.76114
   A86        1.76964   0.00003   0.00017  -0.00163  -0.00147   1.76817
   A87        2.11801  -0.00004  -0.00007  -0.00055  -0.00064   2.11737
   A88        2.05467   0.00001   0.00013  -0.00011  -0.00001   2.05466
   A89        2.11034   0.00003  -0.00006   0.00086   0.00079   2.11112
   A90        2.07655  -0.00001   0.00002  -0.00041  -0.00038   2.07616
   A91        2.09827   0.00003  -0.00001   0.00006   0.00005   2.09831
   A92        2.10837  -0.00002  -0.00002   0.00036   0.00034   2.10871
   A93        2.08359  -0.00003   0.00004   0.00021   0.00024   2.08384
   A94        2.10854   0.00010   0.00008  -0.00165  -0.00158   2.10696
   A95        2.09104  -0.00007  -0.00012   0.00142   0.00129   2.09234
   A96        2.09925  -0.00001   0.00002  -0.00035  -0.00033   2.09892
   A97        2.08774  -0.00001  -0.00002  -0.00046  -0.00048   2.08726
   A98        2.09620   0.00002  -0.00001   0.00083   0.00082   2.09701
   A99        2.09208   0.00000  -0.00000  -0.00028  -0.00028   2.09180
   A100       2.08503  -0.00002   0.00001  -0.00055  -0.00054   2.08449
   A101       2.10608   0.00002  -0.00000   0.00082   0.00082   2.10690
   A102       2.10455   0.00003  -0.00001  -0.00001  -0.00003   2.10452
   A103       2.08891  -0.00002   0.00001   0.00014   0.00015   2.08906
   A104       2.08973  -0.00001  -0.00000  -0.00013  -0.00013   2.08960
   A105       3.18582   0.00002  -0.00009   0.00640   0.00631   3.19213
   A106       3.15500   0.00000   0.00004  -0.01097  -0.01093   3.14407
   A107       3.19476  -0.00007  -0.00010   0.00234   0.00224   3.19700
   A108       3.12824  -0.00006   0.00013  -0.00731  -0.00718   3.12106
   A109       3.15557   0.00002  -0.00011  -0.00309  -0.00320   3.15237
   A110       3.13549   0.00002   0.00034  -0.00245  -0.00211   3.13338
   A111       3.05543  -0.00021  -0.00069   0.01609   0.01539   3.07081
   A112       3.02687  -0.00010   0.00026  -0.00644  -0.00616   3.02071
   A113       3.20408  -0.00002  -0.00022   0.00261   0.00241   3.20649
   A114       3.17566  -0.00002  -0.00015  -0.00111  -0.00125   3.17441
   A115       3.17336   0.00000  -0.00007   0.00099   0.00093   3.17428
   A116       3.13705  -0.00009  -0.00012  -0.00242  -0.00254   3.13451
   A117       3.19200   0.00000   0.00008   0.00569   0.00577   3.19778
   A118       3.14622  -0.00001   0.00003   0.00077   0.00080   3.14702
   A119       3.19278  -0.00009  -0.00031   0.00841   0.00809   3.20087
   A120       3.08473  -0.00013   0.00025  -0.00735  -0.00712   3.07761
    D1       -0.67781  -0.00001  -0.00058   0.03432   0.03378  -0.64403
    D2        2.42582   0.00006  -0.00004   0.03418   0.03417   2.45999
    D3        0.94739  -0.00004  -0.00078   0.03697   0.03617   0.98356
    D4       -2.23217   0.00003  -0.00024   0.03682   0.03656  -2.19561
    D5        2.52539  -0.00004  -0.00080   0.03638   0.03560   2.56099
    D6       -0.65417   0.00003  -0.00025   0.03624   0.03599  -0.61818
    D7       -2.24490   0.00003  -0.00067   0.03415   0.03345  -2.21145
    D8        0.85872   0.00010  -0.00012   0.03400   0.03384   0.89256
    D9        0.49175   0.00002   0.00017   0.00599   0.00617   0.49792
   D10       -2.68119   0.00003   0.00013  -0.00249  -0.00235  -2.68354
   D11       -1.07140  -0.00001   0.00004   0.00498   0.00502  -1.06637
   D12        2.03884  -0.00000  -0.00000  -0.00350  -0.00349   2.03535
   D13       -2.61496  -0.00000   0.00002   0.00422   0.00423  -2.61073
   D14        0.49528   0.00001  -0.00003  -0.00425  -0.00428   0.49100
   D15        2.09967  -0.00001  -0.00002   0.00552   0.00550   2.10517
   D16       -1.07327   0.00000  -0.00007  -0.00296  -0.00302  -1.07629
   D17       -1.82159   0.00003  -0.00074   0.01090   0.01016  -1.81143
   D18        1.42996   0.00002  -0.00048   0.01355   0.01307   1.44303
   D19        2.88112   0.00006  -0.00071   0.01325   0.01254   2.89366
   D20       -0.15052   0.00005  -0.00046   0.01591   0.01545  -0.13507
   D21       -0.24702   0.00006  -0.00067   0.00227   0.00160  -0.24542
   D22        3.00453   0.00005  -0.00042   0.00493   0.00451   3.00904
   D23        1.27820   0.00001  -0.00067   0.00459   0.00393   1.28212
   D24       -1.75344  -0.00000  -0.00042   0.00725   0.00684  -1.74660
   D25        3.10651   0.00001   0.00012  -0.00214  -0.00203   3.10448
   D26       -0.02565   0.00000   0.00006  -0.00348  -0.00343  -0.02908
   D27       -0.00451   0.00001   0.00016   0.00617   0.00633   0.00182
   D28       -3.13668  -0.00000   0.00010   0.00484   0.00493  -3.13174
   D29       -3.09889  -0.00002  -0.00019   0.00445   0.00424  -3.09465
   D30        0.02436  -0.00004  -0.00010  -0.00018  -0.00030   0.02406
   D31        0.01314  -0.00001  -0.00023  -0.00347  -0.00371   0.00943
   D32        3.13639  -0.00003  -0.00015  -0.00810  -0.00825   3.12814
   D33       -2.96968  -0.00003  -0.00014   0.00624   0.00611  -2.96357
   D34        0.16493   0.00001  -0.00004   0.00698   0.00695   0.17187
   D35        0.06748  -0.00002  -0.00038   0.00363   0.00325   0.07073
   D36       -3.08109   0.00002  -0.00028   0.00437   0.00409  -3.07701
   D37        3.01941   0.00000  -0.00012  -0.00421  -0.00432   3.01509
   D38       -0.12324   0.00001   0.00018  -0.00917  -0.00899  -0.13222
   D39       -0.01626  -0.00001   0.00014  -0.00169  -0.00156  -0.01782
   D40        3.12428   0.00000   0.00043  -0.00666  -0.00622   3.11805
   D41       -0.00785   0.00001  -0.00002  -0.00337  -0.00339  -0.01124
   D42        3.14076  -0.00001  -0.00006  -0.00340  -0.00345   3.13731
   D43        3.12404   0.00002   0.00004  -0.00198  -0.00194   3.12210
   D44       -0.01053   0.00001   0.00001  -0.00201  -0.00200  -0.01254
   D45        0.01199  -0.00001  -0.00006  -0.00234  -0.00240   0.00959
   D46       -3.13092  -0.00001  -0.00014   0.00014   0.00000  -3.13092
   D47       -3.13675   0.00000  -0.00002  -0.00232  -0.00234  -3.13909
   D48        0.00353  -0.00000  -0.00010   0.00017   0.00006   0.00359
   D49       -0.00422   0.00000  -0.00001   0.00481   0.00480   0.00058
   D50       -3.06389  -0.00001  -0.00009   0.00428   0.00418  -3.05972
   D51        3.13868   0.00001   0.00007   0.00233   0.00240   3.14108
   D52        0.07901  -0.00000  -0.00001   0.00180   0.00178   0.08079
   D53       -0.00879   0.00001   0.00016  -0.00200  -0.00184  -0.01063
   D54       -3.13183   0.00002   0.00007   0.00269   0.00276  -3.12907
   D55        3.05587   0.00002   0.00024  -0.00137  -0.00113   3.05473
   D56       -0.06717   0.00003   0.00015   0.00332   0.00347  -0.06370
   D57       -2.18538   0.00002   0.00009   0.00437   0.00447  -2.18090
   D58        1.02292   0.00000  -0.00003   0.00375   0.00373   1.02664
   D59        1.03876   0.00001   0.00001   0.00378   0.00378   1.04255
   D60       -2.03613  -0.00001  -0.00011   0.00315   0.00304  -2.03309
   D61       -0.06926   0.00004   0.00040  -0.00324  -0.00285  -0.07210
   D62        3.04396   0.00006   0.00020   0.00176   0.00196   3.04592
   D63        3.07937   0.00001   0.00030  -0.00399  -0.00369   3.07569
   D64       -0.09060   0.00002   0.00010   0.00101   0.00112  -0.08948
   D65        0.01830  -0.00004  -0.00016   0.00087   0.00071   0.01901
   D66       -3.13665  -0.00001  -0.00025   0.00507   0.00482  -3.13183
   D67       -3.09276  -0.00005   0.00005  -0.00454  -0.00449  -3.09725
   D68        0.03549  -0.00002  -0.00004  -0.00034  -0.00038   0.03511
   D69       -1.28559   0.00003   0.00047  -0.01137  -0.01090  -1.29650
   D70        1.80750   0.00002   0.00047  -0.00930  -0.00883   1.79867
   D71        1.82551   0.00005   0.00026  -0.00599  -0.00573   1.81978
   D72       -1.36458   0.00003   0.00026  -0.00392  -0.00366  -1.36823
   D73       -0.03000   0.00002   0.00007  -0.00043  -0.00036  -0.03036
   D74        3.13427   0.00001   0.00007  -0.00294  -0.00287   3.13140
   D75        3.11267   0.00000  -0.00023   0.00465   0.00442   3.11708
   D76       -0.00625  -0.00001  -0.00023   0.00214   0.00191  -0.00434
   D77        0.02741   0.00001  -0.00005   0.00082   0.00077   0.02818
   D78       -3.10080  -0.00002   0.00004  -0.00338  -0.00335  -3.10415
   D79       -3.13729   0.00002  -0.00005   0.00338   0.00333  -3.13396
   D80        0.01769  -0.00001   0.00003  -0.00082  -0.00079   0.01690
   D81        3.04706  -0.00002  -0.00001  -0.00361  -0.00362   3.04344
   D82       -0.14881   0.00001  -0.00014   0.00210   0.00195  -0.14686
   D83       -0.04678  -0.00001  -0.00000  -0.00569  -0.00569  -0.05247
   D84        3.04055   0.00003  -0.00014   0.00001  -0.00013   3.04042
   D85       -3.05472   0.00002   0.00012  -0.00095  -0.00083  -3.05555
   D86        0.06061   0.00002  -0.00001   0.00027   0.00026   0.06087
   D87        0.03884   0.00000   0.00013   0.00106   0.00119   0.04003
   D88       -3.12901  -0.00000  -0.00000   0.00228   0.00228  -3.12674
   D89       -3.02335  -0.00003   0.00002  -0.00380  -0.00378  -3.02714
   D90        0.17996  -0.00002  -0.00004   0.00173   0.00169   0.18164
   D91        0.05139  -0.00001   0.00014  -0.00325  -0.00311   0.04829
   D92       -3.02848  -0.00000   0.00008   0.00228   0.00236  -3.02612
   D93        3.03557   0.00002  -0.00004   0.00423   0.00420   3.03977
   D94       -0.06966   0.00002   0.00002   0.00305   0.00308  -0.06658
   D95       -0.04173   0.00001  -0.00015   0.00360   0.00345  -0.03828
   D96        3.13623   0.00000  -0.00009   0.00242   0.00233   3.13856
   D97       -0.01357   0.00001  -0.00005  -0.00219  -0.00224  -0.01582
   D98       -3.11175   0.00001  -0.00035   0.00117   0.00082  -3.11093
   D99        3.06680   0.00000   0.00001  -0.00765  -0.00764   3.05916
   D100      -0.03138   0.00000  -0.00029  -0.00429  -0.00458  -0.03595
   D101      -2.40083  -0.00001   0.00019  -0.00013   0.00005  -2.40078
   D102       0.80232   0.00000   0.00012   0.00542   0.00554   0.80786
   D103       0.01053   0.00000  -0.00011   0.00583   0.00572   0.01625
   D104       3.10883   0.00003  -0.00011   0.00689   0.00678   3.11561
   D105      -3.07681  -0.00003   0.00002   0.00016   0.00018  -3.07663
   D106       0.02149  -0.00001   0.00002   0.00122   0.00124   0.02273
   D107       2.39699  -0.00005   0.00017  -0.00931  -0.00913   2.38786
   D108      -0.79885  -0.00001   0.00003  -0.00361  -0.00358  -0.80242
   D109      -0.03504   0.00000  -0.00003   0.00733   0.00730  -0.02774
   D110       3.11923  -0.00001  -0.00016   0.00307   0.00291   3.12214
   D111       3.06420   0.00000   0.00026   0.00408   0.00434   3.06854
   D112      -0.06472  -0.00001   0.00013  -0.00018  -0.00005  -0.06477
   D113      -0.74958   0.00000   0.00031   0.00106   0.00137  -0.74821
   D114       2.43469   0.00000   0.00002   0.00432   0.00433   2.43902
   D115       0.03429   0.00000   0.00010  -0.00131  -0.00121   0.03309
   D116      -3.11930   0.00001   0.00004  -0.00130  -0.00126  -3.12056
   D117      -3.06475  -0.00002   0.00010  -0.00232  -0.00222  -3.06696
   D118       0.06485  -0.00001   0.00004  -0.00231  -0.00227   0.06257
   D119       0.75384  -0.00000  -0.00015   0.00071   0.00056   0.75439
   D120      -2.43061   0.00002  -0.00015   0.00172   0.00157  -2.42904
   D121       0.00573   0.00000  -0.00014   0.00345   0.00331   0.00904
   D122       3.12612  -0.00000  -0.00007  -0.00026  -0.00033   3.12578
   D123      -3.10931   0.00000  -0.00001   0.00222   0.00221  -3.10710
   D124       0.01107   0.00000   0.00006  -0.00149  -0.00143   0.00964
   D125      -0.00650   0.00001   0.00007   0.00149   0.00157  -0.00493
   D126      -3.12282   0.00000   0.00009  -0.00145  -0.00136  -3.12417
   D127       3.09841   0.00001   0.00001   0.00264   0.00265   3.10106
   D128      -0.01791   0.00001   0.00003  -0.00030  -0.00028  -0.01818
   D129       0.04514  -0.00001   0.00002  -0.00699  -0.00697   0.03817
   D130      -3.10924   0.00000   0.00015  -0.00270  -0.00254  -3.11178
   D131      -3.12170  -0.00000   0.00001  -0.00404  -0.00404  -3.12574
   D132       0.00710   0.00001   0.00014   0.00025   0.00039   0.00750
   D133      -0.04255  -0.00000   0.00002  -0.00334  -0.00332  -0.04587
   D134       3.11114  -0.00001   0.00008  -0.00335  -0.00326   3.10787
   D135       3.12021  -0.00000  -0.00004   0.00036   0.00031   3.12053
   D136      -0.00928  -0.00001   0.00002   0.00035   0.00037  -0.00891
   D137       3.12045  -0.00001   0.00045   0.00762   0.00807   3.12853
   D138      -0.01859  -0.00002   0.00002   0.00377   0.00379  -0.01480
   D139      -0.00084   0.00003   0.00030  -0.00422  -0.00394  -0.00477
   D140      -3.13988   0.00002  -0.00014  -0.00808  -0.00822   3.13509
   D141      -3.11727  -0.00000  -0.00050  -0.01260  -0.01310  -3.13037
   D142       0.02840   0.00006   0.00007  -0.00639  -0.00634   0.02206
   D143       0.00474  -0.00004  -0.00035  -0.00118  -0.00152   0.00321
   D144      -3.13278   0.00003   0.00021   0.00503   0.00524  -3.12754
   D145      -0.00331  -0.00000  -0.00003   0.00492   0.00489   0.00158
   D146       3.14111  -0.00001  -0.00023  -0.00017  -0.00040   3.14071
   D147       3.13572   0.00001   0.00041   0.00879   0.00920  -3.13827
   D148      -0.00305  -0.00000   0.00021   0.00370   0.00391   0.00086
   D149      -0.00447   0.00003   0.00014   0.00588   0.00602   0.00155
   D150       3.13577   0.00004   0.00038   0.00427   0.00464   3.14041
   D151       3.13309  -0.00004  -0.00042  -0.00027  -0.00070   3.13239
   D152      -0.00986  -0.00003  -0.00018  -0.00188  -0.00207  -0.01193
   D153       0.00358  -0.00001  -0.00018  -0.00026  -0.00044   0.00314
   D154      -3.13806  -0.00001  -0.00008  -0.00516  -0.00524   3.13988
   D155      -3.14085  -0.00000   0.00002   0.00486   0.00488  -3.13597
   D156       0.00070  -0.00000   0.00012  -0.00005   0.00007   0.00077
   D157       0.00038  -0.00000   0.00012  -0.00523  -0.00511  -0.00473
   D158      -3.14117  -0.00000   0.00003  -0.00032  -0.00030  -3.14147
   D159      -3.13984  -0.00002  -0.00012  -0.00359  -0.00371   3.13963
   D160       0.00180  -0.00002  -0.00022   0.00131   0.00109   0.00289
         Item               Value     Threshold  Converged?
 Maximum Force            0.000208     0.000450     YES
 RMS     Force            0.000035     0.000300     YES
 Maximum Displacement     0.165560     0.001800     NO 
 RMS     Displacement     0.020904     0.001200     NO 
 Predicted change in Energy=-4.817160D-06
 GradGradGradGradGradGradGradGradGradGradGradGradGradGradGradGradGradGrad

 Stoichiometry    C32H19MnN3O3S2(1+)
 Framework group  C1[X(C32H19MnN3O3S2)]
 Deg. of freedom   174
 Full point group                 C1      NOp   1
 Largest Abelian subgroup         C1      NOp   1
 Largest concise Abelian subgroup C1      NOp   1
                         Standard orientation:                         
 ---------------------------------------------------------------------
 Center     Atomic      Atomic             Coordinates (Angstroms)
 Number     Number       Type             X           Y           Z
 ---------------------------------------------------------------------
      1         25           0        3.179269    0.166625   -0.417219
      2          6           0        3.950169   -0.542242   -1.922077
      3          6           0        4.587321   -0.407884    0.590855
      4          6           0        4.010650    1.785774   -0.632609
      5          7           0        1.643534    0.864775   -1.544630
      6          7           0        2.126727    0.910175    1.308094
      7          7           0        2.092477   -1.676364   -0.103174
      8          6           0        2.748946    1.345259    2.418077
      9          6           0        2.060335    1.862326    3.507038
     10          6           0        0.669666    1.953724    3.460459
     11          6           0        0.012292    1.507677    2.315459
     12          6           0        0.796606    0.994377    1.283656
     13          6           0        0.792093   -1.761734   -0.395220
     14          6           0       -0.029052   -2.829682   -0.041526
     15          6           0        2.649971   -2.737678    0.506200
     16          6           0        1.929871   -3.874043    0.848067
     17          6           0        0.561948   -3.922290    0.588494
     18          6           0       -1.485012   -2.710182   -0.336206
     19          6           0       -1.453924    1.636091    2.087124
     20          6           0       -2.272320    0.529336    1.784497
     21          6           0       -2.296926   -1.870900    0.450450
     22          6           0       -3.618173    0.729316    1.444688
     23          6           0       -3.638040   -1.667133    0.102450
     24          6           0       -2.051124   -3.380615   -1.423106
     25          6           0       -2.022817    2.914358    2.098111
     26          6           0       -3.362831    3.105488    1.772099
     27          6           0       -3.389932   -3.186552   -1.756588
     28          6           0       -4.177281   -2.311294   -1.014043
     29          6           0       -4.156978    2.018081    1.422879
     30         16           0       -1.638507   -1.127964    1.929239
     31         16           0       -4.690617   -0.643883    1.102516
     32          1           0        2.617314    2.196457    4.382523
     33          1           0        0.108372    2.366218    4.301228
     34          1           0        0.299699    0.654590    0.382131
     35          1           0        0.350202   -0.935247   -0.941555
     36          1           0        3.715731   -2.685406    0.727797
     37          1           0        2.441865   -4.705662    1.332421
     38          1           0       -0.035065   -4.789350    0.878416
     39          1           0       -1.424905   -4.042227   -2.024584
     40          1           0       -1.390715    3.772688    2.335214
     41          1           0       -3.786348    4.111154    1.769893
     42          1           0       -3.818099   -3.704090   -2.616659
     43          1           0       -5.217932   -2.132525   -1.290982
     44          1           0       -5.201307    2.161898    1.138942
     45          8           0        5.505189   -0.724210    1.195973
     46          8           0        4.520309    2.798547   -0.760561
     47          8           0        4.416626   -1.003808   -2.855242
     48          1           0        3.837982    1.286217    2.436870
     49          6           0        0.705168    1.229759   -2.110199
     50          6           0       -0.560870    1.588712   -2.673630
     51          6           0       -0.659120    2.113167   -3.970034
     52          6           0       -1.706997    1.388520   -1.886253
     53          6           0       -1.916108    2.430652   -4.474681
     54          1           0        0.239216    2.269363   -4.568705
     55          6           0       -2.954830    1.712291   -2.403765
     56          1           0       -1.624875    0.992304   -0.872921
     57          6           0       -3.058148    2.229603   -3.696531
     58          1           0       -2.004515    2.840186   -5.482000
     59          1           0       -3.846121    1.555909   -1.792748
     60          1           0       -4.039719    2.483428   -4.101099
 ---------------------------------------------------------------------
 Rotational constants (GHZ):           0.1125477           0.0672289           0.0663778
 Basis read from rwf:  (5D, 7F)
 There are   755 symmetry adapted cartesian basis functions of A   symmetry.
 There are   708 symmetry adapted basis functions of A   symmetry.
   708 basis functions,  1259 primitive gaussians,   755 cartesian basis functions
   156 alpha electrons      156 beta electrons
       nuclear repulsion energy      5761.2931193249 Hartrees.
 NAtoms=   60 NActive=   60 NUniq=   60 SFac= 1.00D+00 NAtFMM=   60 NAOKFM=T Big=T
 Integral buffers will be    131072 words long.
 Raffenetti 2 integral format.
 Two-electron integral symmetry is turned on.
 Nuclear repulsion after empirical dispersion term =     5761.2281098591 Hartrees.
 ------------------------------------------------------------------------------
 Polarizable Continuum Model (PCM)
 =================================
 Model                : PCM.
 Atomic radii         : UFF (Universal Force Field).
 Polarization charges : Total charges.
 Charge compensation  : None.
 Solution method      : On-the-fly selection.
 Cavity type          : Scaled VdW (van der Waals Surface) (Alpha=1.100).
 Cavity algorithm     : GePol (No added spheres)
                        Default sphere list used, NSphG=   60.
                        Lebedev-Laikov grids with approx.  5.0 points / Ang**2.
                        Smoothing algorithm: York/Karplus (Gamma=1.0000).
                        Polarization charges: spherical gaussians, with
                                              point-specific exponents (IZeta= 3).
                        Self-potential: point-specific (ISelfS= 7).
                        Self-field    : sphere-specific E.n sum rule (ISelfD= 2).
 1st derivatives      : Analytical E(r).r(x)/FMM algorithm (CHGder, D1EAlg=3).
                        Cavity 1st derivative terms included.
 Solvent              : TetraHydroFuran, Eps=   7.425700 Eps(inf)=   1.974025
 ------------------------------------------------------------------------------
 One-electron integrals computed using PRISM.
 PrsmSu:  requested number of processors reduced to:  11 ShMem   1 Linda.
 NBasis=   708 RedAO= T EigKep=  2.24D-04  NBF=   708
 NBsUse=   708 1.00D-06 EigRej= -1.00D+00 NBFU=   708
 Initial guess from the checkpoint file:  "checkpoint.chk"
 B after Tr=    -0.000000   -0.000000   -0.000000
         Rot=    0.999491    0.031906   -0.000703    0.000486 Ang=   3.66 deg.
 ExpMin= 3.93D-02 ExpMax= 2.77D+05 ExpMxC= 2.68D+03 IAcc=3 IRadAn=         5 AccDes= 0.00D+00
 Harris functional with IExCor= 4639 and IRadAn=       5 diagonalized for initial guess.
 HarFok:  IExCor= 4639 AccDes= 0.00D+00 IRadAn=         5 IDoV= 1 UseB2=F ITyADJ=14
 ICtDFT=  3500011 ScaDFX=  1.000000  1.000000  1.000000  1.000000
 FoFCou: FMM=F IPFlag=           0 FMFlag=      100000 FMFlg1=        2001
         NFxFlg=           0 DoJE=T BraDBF=F KetDBF=T FulRan=T
         wScrn=  0.000000 ICntrl=       500 IOpCl=  0 I1Cent=   200000004 NGrid=           0
         NMat0=    1 NMatS0=      1 NMatT0=    0 NMatD0=    1 NMtDS0=    0 NMtDT0=    0
 Petite list used in FoFCou.
 Requested convergence on RMS density matrix=1.00D-08 within 128 cycles.
 Requested convergence on MAX density matrix=1.00D-06.
 Requested convergence on             energy=1.00D-06.
 No special actions if energy rises.
 CoulSu:  requested number of processors reduced to:  20 ShMem   1 Linda.
 CoulSu:  requested number of processors reduced to:  11 ShMem   1 Linda.
 Inv3:  Mode=1 IEnd=    62216748.
 Iteration    1 A*A^-1 deviation from unit magnitude is 3.22D-15 for    986.
 Iteration    1 A*A^-1 deviation from orthogonality  is 2.00D-15 for   3863    591.
 Iteration    1 A^-1*A deviation from unit magnitude is 3.77D-15 for   4445.
 Iteration    1 A^-1*A deviation from orthogonality  is 2.00D-15 for   2433     81.
 CoulSu:  requested number of processors reduced to:  11 ShMem   1 Linda.
 CoulSu:  requested number of processors reduced to:  11 ShMem   1 Linda.
 CoulSu:  requested number of processors reduced to:  23 ShMem   1 Linda.
 CoulSu:  requested number of processors reduced to:  20 ShMem   1 Linda.
 Error on total polarization charges =  0.01946
 SCF Done:  E(RwB97XD) =  -3566.16492975     A.U. after   14 cycles
            NFock= 14  Conv=0.76D-08     -V/T= 2.0056
 PrsmSu:  requested number of processors reduced to:  11 ShMem   1 Linda.
 D1PCM: PCM CHGder 1st derivatives, ID1Alg=3 FixD1E=F DoIter=F DoCFld=F I1PDM=0.
 CoulSu:  requested number of processors reduced to:  22 ShMem   1 Linda.
 CoulSu:  requested number of processors reduced to:  18 ShMem   1 Linda.
 CoulSu:  requested number of processors reduced to:  18 ShMem   1 Linda.
 CoulSu:  requested number of processors reduced to:  17 ShMem   1 Linda.
 CoulSu:  requested number of processors reduced to:  10 ShMem   1 Linda.
 CoulSu:  requested number of processors reduced to:  10 ShMem   1 Linda.
 CoulSu:  requested number of processors reduced to:  22 ShMem   1 Linda.
 CoulSu:  requested number of processors reduced to:  22 ShMem   1 Linda.
 Calling FoFJK, ICntrl=      2127 FMM=T ISym2X=0 I1Cent= 0 IOpClX= 0 NMat=1 NMatS=1 NMatT=0.
 ***** Axes restored to original set *****
 -------------------------------------------------------------------
 Center     Atomic                   Forces (Hartrees/Bohr)
 Number     Number              X              Y              Z
 -------------------------------------------------------------------
      1       25          -0.000014255   -0.000480561   -0.000767139
      2        6          -0.000293154    0.000399695   -0.000528333
      3        6          -0.000015560    0.000320886    0.001556106
      4        6          -0.000127984    0.000146601    0.000124080
      5        7          -0.000408940    0.000071543   -0.000043360
      6        7          -0.000575537   -0.000414190    0.000405755
      7        7           0.000032877    0.000059451   -0.000134502
      8        6           0.000256176    0.000490699   -0.000029620
      9        6           0.000078390   -0.000111787   -0.000108324
     10        6          -0.000596732    0.000008424    0.000045708
     11        6          -0.000017558    0.000049674   -0.000621876
     12        6           0.000281565   -0.000157627    0.000004010
     13        6          -0.000563107    0.000426788    0.000242059
     14        6           0.000190896    0.000246255   -0.000874865
     15        6          -0.000020651   -0.000306589   -0.000106672
     16        6           0.000046412    0.000142654   -0.000143110
     17        6           0.000037749    0.000082932   -0.000072083
     18        6           0.000245758    0.000430990    0.000604688
     19        6           0.000105753    0.000190466   -0.000116262
     20        6          -0.000081523    0.000235776    0.000614287
     21        6          -0.000679316   -0.000302849   -0.000182054
     22        6           0.000363464    0.000294337    0.000071501
     23        6           0.000464240    0.000140361    0.000093036
     24        6          -0.000000025    0.000090603   -0.000126149
     25        6           0.000046686   -0.000324258    0.000220738
     26        6          -0.000026674    0.000338612    0.000206079
     27        6          -0.000016430   -0.000299428    0.000156127
     28        6           0.000024372    0.000064330    0.000008937
     29        6          -0.000213252   -0.000528604   -0.000329157
     30       16          -0.000128556   -0.000419499    0.000040866
     31       16          -0.000379065    0.000035917   -0.000571705
     32        1           0.000045651   -0.000051005    0.000026280
     33        1           0.000034615    0.000020921    0.000013534
     34        1           0.000125638    0.000275828   -0.000169652
     35        1           0.000137628   -0.000615800    0.000349546
     36        1           0.000205937    0.000265152    0.000130887
     37        1           0.000017704    0.000014036    0.000061618
     38        1          -0.000068007   -0.000029646    0.000178187
     39        1          -0.000036725   -0.000008634   -0.000125600
     40        1           0.000179925   -0.000087925    0.000010958
     41        1          -0.000058913    0.000060971   -0.000014712
     42        1           0.000017788    0.000065761    0.000021987
     43        1           0.000069300   -0.000026251    0.000022029
     44        1          -0.000018507   -0.000049941    0.000031594
     45        8           0.000319625   -0.000345885   -0.000438812
     46        8          -0.000055628   -0.000077992   -0.000033091
     47        8           0.000010064   -0.000179409    0.000193431
     48        1           0.000010561    0.000071177   -0.000365560
     49        6           0.000750281    0.000488020   -0.000088215
     50        6          -0.000977484   -0.001105900    0.000543153
     51        6           0.000259140   -0.000208621   -0.000050108
     52        6           0.000607844    0.000295543    0.000569068
     53        6          -0.000140076    0.000149289    0.000168589
     54        1           0.000034957   -0.000031367   -0.000183356
     55        6           0.000285621    0.000257217   -0.000578469
     56        1           0.000477624    0.000122312    0.000070863
     57        6          -0.000118503   -0.000025882    0.000273996
     58        1           0.000082081    0.000009531   -0.000061937
     59        1          -0.000230717   -0.000174332   -0.000098364
     60        1           0.000016558    0.000001225   -0.000096609
 -------------------------------------------------------------------
 Cartesian Forces:  Max     0.001556106 RMS     0.000316495

 GradGradGradGradGradGradGradGradGradGradGradGradGradGradGradGradGradGrad
 Berny optimization.
 Using GEDIIS/GDIIS optimizer.
 FormGI is forming the generalized inverse of G from B-inverse, IUseBI=4.
 Internal  Forces:  Max     0.001295128 RMS     0.000234669
 Search for a local minimum.
 Step number 186 out of a maximum of  356
 All quantities printed in internal units (Hartrees-Bohrs-Radians)
 Mixed Optimization -- En-DIIS/RFO-DIIS
 Swapping is turned off.
 Update second derivatives using D2CorX and points   88   89   90   91   92
                                                     93   94   95   96   97
                                                     98   99   86  102  103
                                                    104  105  106  107  108
                                                    109  110  111  112  113
                                                    114  115  116  117  118
                                                    119  120  121  122  123
                                                    124  125  126  127  128
                                                    130  131  132  133  134
                                                    135  136  137  138  139
                                                    140  141  142  143  144
                                                    145  146  147  148  149
                                                    150  151  152  153  154
                                                    155  156  157  158  159
                                                    160  161  162  163  164
                                                    165  166  167  168  169
                                                    170  171  172  173  174
                                                    175  101  176  177  178
                                                    179  180  181  182  183
                                                    184  185  186
 DE=  7.75D-05 DEPred=-4.82D-06 R=-1.61D+01
 Trust test=-1.61D+01 RLast= 1.18D-01 DXMaxT set to 7.96D-02
 ITU= -1  1  1  1  1 -1  1 -1  1 -1  0  0 -1 -1  1 -1 -1 -1 -1 -1
 ITU= -1 -1 -1 -1  1  1 -1  1 -1 -1  1 -1 -1  1  1 -1 -1  1  1 -1
 ITU=  0  1 -1  1 -1  1 -1 -1 -1  1  1 -1  1  0 -1  0 -1 -1 -1  1
 ITU=  1  1 -1 -1  1  1 -1 -1  1 -1 -1 -1 -1 -1 -1 -1 -1 -1 -1  1
 ITU= -1 -1 -1  1 -1  0 -1  0  1  1 -1 -1  0 -1 -1 -1  0 -1 -1 -1
     Eigenvalues ---    0.00000   0.00005   0.00008   0.00054   0.00105
     Eigenvalues ---    0.00167   0.00267   0.00466   0.00634   0.00855
     Eigenvalues ---    0.00862   0.00954   0.01129   0.01236   0.01460
     Eigenvalues ---    0.01513   0.01613   0.01625   0.01670   0.01756
     Eigenvalues ---    0.01787   0.01870   0.01932   0.01945   0.01978
     Eigenvalues ---    0.02004   0.02025   0.02058   0.02099   0.02136
     Eigenvalues ---    0.02150   0.02153   0.02163   0.02170   0.02180
     Eigenvalues ---    0.02183   0.02205   0.02219   0.02223   0.02235
     Eigenvalues ---    0.02244   0.02261   0.02289   0.02375   0.02435
     Eigenvalues ---    0.02742   0.02906   0.03092   0.03459   0.03789
     Eigenvalues ---    0.04324   0.04465   0.04635   0.05203   0.05289
     Eigenvalues ---    0.05496   0.05969   0.06562   0.06766   0.07404
     Eigenvalues ---    0.07984   0.08524   0.08918   0.09719   0.09908
     Eigenvalues ---    0.10792   0.11590   0.12192   0.12531   0.12922
     Eigenvalues ---    0.13807   0.13951   0.14742   0.15304   0.15416
     Eigenvalues ---    0.15480   0.15602   0.15771   0.15860   0.15911
     Eigenvalues ---    0.15972   0.16001   0.16012   0.16030   0.16039
     Eigenvalues ---    0.16048   0.16078   0.16337   0.16782   0.17166
     Eigenvalues ---    0.18623   0.19340   0.20046   0.20165   0.20955
     Eigenvalues ---    0.21162   0.21738   0.21868   0.22028   0.22067
     Eigenvalues ---    0.22118   0.22164   0.22276   0.22450   0.22799
     Eigenvalues ---    0.23027   0.23151   0.23312   0.23467   0.23873
     Eigenvalues ---    0.24264   0.25246   0.25989   0.26078   0.26913
     Eigenvalues ---    0.26984   0.28867   0.32247   0.32819   0.33054
     Eigenvalues ---    0.33841   0.34257   0.34411   0.34442   0.34550
     Eigenvalues ---    0.34618   0.34628   0.34633   0.34654   0.34680
     Eigenvalues ---    0.34691   0.34766   0.34816   0.34821   0.34860
     Eigenvalues ---    0.34930   0.35200   0.36540   0.37335   0.37887
     Eigenvalues ---    0.38858   0.39698   0.40621   0.41231   0.41857
     Eigenvalues ---    0.42138   0.42285   0.43717   0.43952   0.43987
     Eigenvalues ---    0.44270   0.45125   0.45214   0.45686   0.45890
     Eigenvalues ---    0.46043   0.46182   0.46553   0.46753   0.47064
     Eigenvalues ---    0.47268   0.47490   0.48128   0.48752   0.50654
     Eigenvalues ---    0.53266   0.53739   0.54574   0.57086   0.60813
     Eigenvalues ---    1.23269   1.25995   1.35432   1.39623
 Eigenvalue     1 is   7.85D-08 Eigenvector:
                          D3        D5        D7        D1        D4
   1                    0.32183   0.31836   0.31728   0.31302   0.19941
                          D6        D8        D2        D22       D72
   1                    0.19594   0.19486   0.19059  -0.18945   0.18530
 Eigenvalue     2 is   4.64D-05 Eigenvector:
                          D1        D7        D58       D5        D82
   1                    0.23564   0.22210  -0.19701   0.18515  -0.17880
                          D3       D151      D144      D152       D84
   1                    0.17087   0.16974  -0.16346   0.16146  -0.14461
 Eigenvalue     3 is   8.13D-05 Eigenvector:
                          D71       D82       D59       D99       D57
   1                    0.24895  -0.23383   0.18980   0.17902   0.17704
                         D114       D60       D58       D69       D72
   1                   -0.17475   0.16415   0.15138   0.14904   0.14354
 En-DIIS/RFO-DIIS/Sim-DIIS IScMMF=       -3 using points:   186  185  184  183  182  181  180  179  178  177
 RFO step:  Lambda=-1.59266292D-04.
 DIIS inversion failure, remove point  10.
 DIIS inversion failure, remove point   9.
 DIIS inversion failure, remove point   8.
 DIIS inversion failure, remove point   7.
 RFO-DIIS uses    6 points instead of   10
 EnCoef did   100 forward-backward iterations
 EnCoef did   100 forward-backward iterations
 EnCoef did   100 forward-backward iterations
 EnCoef did   100 forward-backward iterations
 EnCoef did    39 forward-backward iterations
 DidBck=T Rises=T En-DIIS coefs:    0.25461    0.00221    0.00000    0.00000    0.00000
                  En-DIIS coefs:    0.00000    0.46789    0.00000    0.27528    0.00000
 Iteration  1 RMS(Cart)=  0.03694891 RMS(Int)=  0.00026210
 Iteration  2 RMS(Cart)=  0.00083217 RMS(Int)=  0.00006102
 Iteration  3 RMS(Cart)=  0.00000018 RMS(Int)=  0.00006102
 Variable       Old X    -DE/DX   Delta X   Delta X   Delta X     New X
                                 (Linear)    (Quad)   (Total)
    R1        3.46463   0.00031   0.00112   0.00448   0.00560   3.47023
    R2        3.44785  -0.00015  -0.00018  -0.00143  -0.00161   3.44624
    R3        3.46353   0.00012  -0.00010   0.00005  -0.00005   3.46348
    R4        3.83430   0.00051   0.00146  -0.01352  -0.01206   3.82224
    R5        4.06946  -0.00047  -0.00062   0.02032   0.01965   4.08911
    R6        4.08651   0.00010   0.00154  -0.00856  -0.00706   4.07944
    R7        2.15580  -0.00009  -0.00007   0.00029   0.00022   2.15602
    R8        2.16183  -0.00050  -0.00036   0.00022  -0.00014   2.16169
    R9        2.15614   0.00005   0.00008   0.00041   0.00049   2.15663
   R10        2.18230   0.00090   0.00035  -0.00155  -0.00120   2.18110
   R11        2.54132  -0.00026  -0.00000  -0.00168  -0.00168   2.53965
   R12        2.51902   0.00017   0.00037   0.00257   0.00284   2.52186
   R13        2.52374  -0.00036  -0.00031  -0.00211  -0.00241   2.52133
   R14        2.54133   0.00012   0.00012   0.00250   0.00259   2.54392
   R15        2.62351  -0.00028  -0.00052   0.00036  -0.00011   2.62340
   R16        2.06131   0.00001  -0.00010   0.00019   0.00010   2.06140
   R17        2.63512  -0.00026  -0.00064   0.00033  -0.00026   2.63486
   R18        2.06001  -0.00003  -0.00008   0.00007  -0.00001   2.06000
   R19        2.63352   0.00026   0.00034  -0.00143  -0.00108   2.63244
   R20        2.06326   0.00004   0.00010  -0.00062  -0.00051   2.06275
   R21        2.63428  -0.00025  -0.00023  -0.00264  -0.00297   2.63131
   R22        2.81462   0.00013  -0.00007   0.00743   0.00731   2.82193
   R23        2.04852   0.00002  -0.00012  -0.00664  -0.00676   2.04176
   R24        2.63201   0.00045   0.00115   0.00018   0.00129   2.63329
   R25        2.05001   0.00071   0.00174   0.00147   0.00321   2.05322
   R26        2.63208  -0.00006  -0.00003  -0.00225  -0.00224   2.62984
   R27        2.81622  -0.00024  -0.00012  -0.00018  -0.00025   2.81598
   R28        2.62307   0.00011   0.00012  -0.00284  -0.00273   2.62035
   R29        2.05944  -0.00011  -0.00016  -0.00108  -0.00125   2.05819
   R30        2.63271  -0.00015  -0.00005  -0.00163  -0.00165   2.63106
   R31        2.06000  -0.00002  -0.00004   0.00049   0.00045   2.06045
   R32        2.06342  -0.00015  -0.00030  -0.00134  -0.00165   2.06177
   R33        2.66071  -0.00036  -0.00049   0.00036  -0.00002   2.66069
   R34        2.63975   0.00021   0.00050   0.00203   0.00253   2.64228
   R35        2.66328  -0.00027  -0.00028   0.00230   0.00205   2.66534
   R36        2.64408   0.00035   0.00042   0.00085   0.00127   2.64535
   R37        2.65019   0.00009   0.00021   0.00165   0.00180   2.65199
   R38        3.36420  -0.00002   0.00015   0.00066   0.00090   3.36510
   R39        2.64643   0.00015   0.00053  -0.00066  -0.00003   2.64640
   R40        3.36578   0.00010   0.00031   0.00285   0.00321   3.36899
   R41        2.64001   0.00006   0.00006  -0.00126  -0.00120   2.63881
   R42        3.35547   0.00010   0.00022   0.00022   0.00038   3.35585
   R43        2.64040  -0.00010  -0.00015  -0.00135  -0.00150   2.63890
   R44        3.35664  -0.00048  -0.00131   0.00185   0.00056   3.35720
   R45        2.63295   0.00009  -0.00007  -0.00070  -0.00081   2.63215
   R46        2.06288   0.00012   0.00016  -0.00041  -0.00024   2.06264
   R47        2.63103  -0.00015  -0.00027  -0.00107  -0.00134   2.62970
   R48        2.06361  -0.00008  -0.00017   0.00083   0.00067   2.06428
   R49        2.62874   0.00012   0.00016  -0.00013   0.00005   2.62879
   R50        2.06209  -0.00006  -0.00009  -0.00008  -0.00017   2.06192
   R51        2.63030  -0.00009  -0.00016   0.00118   0.00098   2.63128
   R52        2.06222  -0.00004  -0.00007   0.00003  -0.00004   2.06218
   R53        2.06284   0.00007   0.00013   0.00016   0.00029   2.06313
   R54        2.06311   0.00000  -0.00003  -0.00016  -0.00020   2.06292
   R55        2.70512   0.00062   0.00028   0.00185   0.00213   2.70724
   R56        2.64924   0.00021   0.00012   0.00045   0.00059   2.64983
   R57        2.65481   0.00130   0.00163   0.00326   0.00491   2.65972
   R58        2.62902  -0.00018  -0.00025   0.00045   0.00019   2.62921
   R59        2.06128   0.00002  -0.00003   0.00450   0.00447   2.06575
   R60        2.62511  -0.00002  -0.00014  -0.00434  -0.00447   2.62064
   R61        2.06194   0.00016   0.00012   0.00120   0.00132   2.06326
   R62        2.63899  -0.00016  -0.00031  -0.00086  -0.00120   2.63779
   R63        2.06164   0.00000   0.00000   0.00039   0.00039   2.06203
   R64        2.63854  -0.00012  -0.00012   0.00345   0.00332   2.64186
   R65        2.06335  -0.00030  -0.00055  -0.00037  -0.00092   2.06242
   R66        2.06282   0.00002   0.00002  -0.00017  -0.00015   2.06267
    A1        1.57806   0.00030   0.00153  -0.00065   0.00088   1.57894
    A2        1.62520  -0.00000  -0.00156  -0.01570  -0.01720   1.60799
    A3        1.56601   0.00066   0.00630   0.00949   0.01580   1.58181
    A4        1.57180   0.00001  -0.00028   0.00309   0.00290   1.57469
    A5        1.56383  -0.00035  -0.00100   0.00497   0.00402   1.56785
    A6        1.61407  -0.00060  -0.00618   0.00111  -0.00507   1.60900
    A7        1.61006   0.00002   0.00021  -0.00045  -0.00014   1.60992
    A8        1.54486  -0.00008  -0.00079  -0.00163  -0.00232   1.54253
    A9        1.58163   0.00010   0.00022   0.00133   0.00163   1.58326
   A10        1.52721  -0.00033  -0.00159  -0.01065  -0.01222   1.51499
   A11        1.56435   0.00036   0.00117  -0.00338  -0.00223   1.56212
   A12        1.50302  -0.00008   0.00179   0.01101   0.01260   1.51563
   A13        2.14939  -0.00028  -0.00200  -0.00885  -0.01069   2.13870
   A14        2.08844   0.00007   0.00192   0.01388   0.01557   2.10401
   A15        2.04471   0.00021   0.00031  -0.00475  -0.00445   2.04026
   A16        2.10839  -0.00012  -0.00035  -0.00471  -0.00524   2.10315
   A17        2.12946   0.00018   0.00081   0.00256   0.00350   2.13297
   A18        2.04013  -0.00007  -0.00022   0.00160   0.00142   2.04155
   A19        2.13936   0.00002   0.00029   0.00059   0.00086   2.14021
   A20        2.04726  -0.00029  -0.00108   0.00404   0.00297   2.05023
   A21        2.09654   0.00027   0.00078  -0.00464  -0.00384   2.09270
   A22        2.08619  -0.00008  -0.00052   0.00171   0.00121   2.08740
   A23        2.08366   0.00009   0.00048  -0.00220  -0.00172   2.08194
   A24        2.11331  -0.00001   0.00003   0.00048   0.00050   2.11381
   A25        2.06792   0.00016   0.00061  -0.00084  -0.00028   2.06763
   A26        2.10800  -0.00006   0.00025   0.00057   0.00081   2.10880
   A27        2.10727  -0.00009  -0.00086   0.00026  -0.00060   2.10667
   A28        2.04946  -0.00009  -0.00005  -0.00221  -0.00225   2.04721
   A29        2.16846   0.00017  -0.00104   0.00182   0.00098   2.16944
   A30        2.06251  -0.00009   0.00105   0.00002   0.00085   2.06336
   A31        2.17865  -0.00022  -0.00066   0.00552   0.00494   2.18358
   A32        2.04075   0.00018   0.00063   0.00036   0.00095   2.04170
   A33        2.06357   0.00004   0.00009  -0.00591  -0.00585   2.05772
   A34        2.17431  -0.00009  -0.00007  -0.00232  -0.00240   2.17192
   A35        2.04661  -0.00007   0.00044  -0.00858  -0.00819   2.03842
   A36        2.06225   0.00016  -0.00037   0.01083   0.01042   2.07267
   A37        2.05578   0.00013   0.00020   0.00015   0.00029   2.05607
   A38        2.05363  -0.00018  -0.00100   0.00170   0.00071   2.05434
   A39        2.17351   0.00004   0.00071  -0.00211  -0.00147   2.17204
   A40        2.14435   0.00016   0.00046   0.00027   0.00068   2.14504
   A41        2.04844   0.00011   0.00022  -0.00320  -0.00295   2.04549
   A42        2.09038  -0.00027  -0.00067   0.00293   0.00228   2.09266
   A43        2.08500  -0.00006  -0.00002  -0.00239  -0.00241   2.08259
   A44        2.08325   0.00002  -0.00015   0.00265   0.00249   2.08574
   A45        2.11476   0.00003   0.00014  -0.00036  -0.00023   2.11452
   A46        2.06432  -0.00007  -0.00018   0.00300   0.00284   2.06717
   A47        2.10716   0.00004   0.00021  -0.00049  -0.00031   2.10685
   A48        2.11166   0.00003  -0.00005  -0.00257  -0.00266   2.10901
   A49        2.09519  -0.00001   0.00111  -0.00577  -0.00460   2.09059
   A50        2.10749  -0.00004  -0.00109   0.00582   0.00463   2.11212
   A51        2.07958   0.00005  -0.00009   0.00021   0.00015   2.07973
   A52        2.13750  -0.00025  -0.00072   0.00855   0.00771   2.14520
   A53        2.06896   0.00031   0.00081  -0.00437  -0.00348   2.06547
   A54        2.07489  -0.00007  -0.00015  -0.00359  -0.00373   2.07116
   A55        2.09130   0.00021   0.00054   0.00212   0.00263   2.09393
   A56        2.10233  -0.00005  -0.00055   0.00370   0.00324   2.10557
   A57        2.08761  -0.00015   0.00023  -0.00619  -0.00600   2.08161
   A58        2.09453  -0.00008  -0.00021   0.00208   0.00168   2.09621
   A59        2.09365   0.00022   0.00026   0.00163   0.00161   2.09526
   A60        2.09398  -0.00015  -0.00020  -0.00528  -0.00570   2.08828
   A61        2.10070  -0.00015  -0.00058  -0.00098  -0.00155   2.09915
   A62        2.11301  -0.00007  -0.00001   0.00154   0.00146   2.11447
   A63        2.06857   0.00022   0.00067  -0.00044   0.00028   2.06885
   A64        2.09563   0.00014   0.00040  -0.00192  -0.00148   2.09415
   A65        2.10760  -0.00001   0.00052   0.00083   0.00138   2.10898
   A66        2.07919  -0.00013  -0.00093   0.00086  -0.00016   2.07903
   A67        2.10458  -0.00004   0.00023  -0.00229  -0.00205   2.10253
   A68        2.07958   0.00006   0.00008   0.00164   0.00170   2.08129
   A69        2.09874  -0.00002  -0.00033   0.00082   0.00048   2.09922
   A70        2.11169  -0.00009  -0.00041   0.00126   0.00080   2.11248
   A71        2.07651   0.00024   0.00086   0.00089   0.00175   2.07826
   A72        2.09445  -0.00015  -0.00046  -0.00184  -0.00230   2.09215
   A73        2.09547   0.00011   0.00040   0.00121   0.00159   2.09706
   A74        2.09501  -0.00011  -0.00043  -0.00084  -0.00126   2.09375
   A75        2.09249  -0.00000  -0.00001  -0.00035  -0.00036   2.09213
   A76        2.09838   0.00001  -0.00001   0.00147   0.00144   2.09981
   A77        2.09392   0.00001   0.00002   0.00037   0.00037   2.09429
   A78        2.09062  -0.00001   0.00004  -0.00164  -0.00162   2.08901
   A79        2.09195  -0.00007  -0.00020   0.00097   0.00078   2.09273
   A80        2.08879   0.00001   0.00007  -0.00220  -0.00214   2.08665
   A81        2.10238   0.00006   0.00013   0.00116   0.00127   2.10365
   A82        2.09096  -0.00003  -0.00006  -0.00055  -0.00064   2.09032
   A83        2.08806   0.00007   0.00030   0.00066   0.00096   2.08902
   A84        2.10413  -0.00004  -0.00027  -0.00017  -0.00045   2.10368
   A85        1.76114   0.00034   0.00255   0.00194   0.00457   1.76572
   A86        1.76817   0.00032   0.00159   0.00704   0.00864   1.77681
   A87        2.11737  -0.00012   0.00042  -0.01233  -0.01204   2.10533
   A88        2.05466   0.00044  -0.00003   0.00773   0.00756   2.06222
   A89        2.11112  -0.00032  -0.00049   0.00445   0.00392   2.11504
   A90        2.07616   0.00011   0.00022  -0.00023   0.00003   2.07619
   A91        2.09831   0.00002   0.00012   0.00572   0.00583   2.10414
   A92        2.10871  -0.00013  -0.00035  -0.00549  -0.00586   2.10285
   A93        2.08384  -0.00016  -0.00018  -0.00635  -0.00653   2.07731
   A94        2.10696   0.00057   0.00159   0.00914   0.01063   2.11759
   A95        2.09234  -0.00040  -0.00138  -0.00263  -0.00411   2.08823
   A96        2.09892   0.00015   0.00020  -0.00276  -0.00258   2.09634
   A97        2.08726   0.00000   0.00029  -0.00044  -0.00015   2.08710
   A98        2.09701  -0.00015  -0.00048   0.00321   0.00272   2.09973
   A99        2.09180   0.00011   0.00019   0.00394   0.00416   2.09595
   A100       2.08449   0.00001   0.00030  -0.00099  -0.00070   2.08378
   A101       2.10690  -0.00012  -0.00049  -0.00294  -0.00345   2.10345
   A102       2.10452   0.00012   0.00006   0.00094   0.00100   2.10552
   A103       2.08906  -0.00007  -0.00011  -0.00024  -0.00035   2.08870
   A104       2.08960  -0.00004   0.00006  -0.00069  -0.00064   2.08896
   A105       3.19213  -0.00029  -0.00465   0.00046  -0.00419   3.18794
   A106       3.14407   0.00096   0.00783   0.00884   0.01668   3.16075
   A107       3.19700   0.00000  -0.00184  -0.01260  -0.01431   3.18269
   A108       3.12106   0.00051   0.00360  -0.00857  -0.00497   3.11609
   A109       3.15237   0.00077   0.00310  -0.00275   0.00035   3.15272
   A110       3.13338   0.00019   0.00151   0.00337   0.00488   3.13826
   A111       3.07081  -0.00068  -0.01162  -0.00549  -0.01709   3.05372
   A112       3.02071   0.00115   0.00505  -0.02026  -0.01530   3.00541
   A113       3.20649   0.00009  -0.00136  -0.01411  -0.01536   3.19113
   A114       3.17441   0.00038   0.00138  -0.00381  -0.00230   3.17211
   A115       3.17428  -0.00032  -0.00073   0.00441   0.00382   3.17810
   A116       3.13451  -0.00014   0.00150  -0.00421  -0.00271   3.13180
   A117       3.19778  -0.00037  -0.00440  -0.01226  -0.01666   3.18112
   A118       3.14702   0.00001  -0.00048   0.01367   0.01319   3.16021
   A119       3.20087  -0.00088  -0.00599  -0.01873  -0.02464   3.17623
   A120       3.07761   0.00069   0.00522   0.01133   0.01663   3.09424
    D1       -0.64403  -0.00012  -0.02655   0.03610   0.00955  -0.63447
    D2        2.45999   0.00007  -0.02624   0.00463  -0.02153   2.43845
    D3        0.98356  -0.00014  -0.02802   0.02060  -0.00751   0.97605
    D4       -2.19561   0.00005  -0.02771  -0.01087  -0.03859  -2.23421
    D5        2.56099   0.00004  -0.02744   0.02195  -0.00538   2.55561
    D6       -0.61818   0.00024  -0.02713  -0.00951  -0.03646  -0.65464
    D7       -2.21145  -0.00013  -0.02582   0.03386   0.00789  -2.20356
    D8        0.89256   0.00006  -0.02551   0.00240  -0.02319   0.86937
    D9        0.49792  -0.00041  -0.00687   0.02226   0.01544   0.51336
   D10       -2.68354  -0.00028   0.00115   0.03095   0.03223  -2.65130
   D11       -1.06637  -0.00006  -0.00581   0.01721   0.01141  -1.05496
   D12        2.03535   0.00007   0.00221   0.02591   0.02820   2.06356
   D13       -2.61073   0.00004  -0.00499   0.01903   0.01398  -2.59675
   D14        0.49100   0.00016   0.00303   0.02773   0.03077   0.52177
   D15        2.10517  -0.00035  -0.00619   0.02218   0.01609   2.12125
   D16       -1.07629  -0.00023   0.00183   0.03088   0.03288  -1.04341
   D17       -1.81143  -0.00016  -0.00730   0.00138  -0.00593  -1.81736
   D18        1.44303  -0.00008  -0.00991   0.00717  -0.00272   1.44032
   D19        2.89366  -0.00046  -0.00881   0.00191  -0.00693   2.88673
   D20       -0.13507  -0.00038  -0.01143   0.00770  -0.00371  -0.13877
   D21       -0.24542   0.00050  -0.00100   0.01084   0.00984  -0.23558
   D22        3.00904   0.00058  -0.00361   0.01663   0.01306   3.02210
   D23        1.28212   0.00014  -0.00267   0.00036  -0.00232   1.27980
   D24       -1.74660   0.00022  -0.00528   0.00615   0.00090  -1.74570
   D25        3.10448  -0.00007   0.00277   0.00904   0.01172   3.11619
   D26       -0.02908  -0.00009   0.00396   0.00998   0.01388  -0.01521
   D27        0.00182  -0.00019  -0.00509   0.00014  -0.00494  -0.00312
   D28       -3.13174  -0.00021  -0.00390   0.00108  -0.00278  -3.13452
   D29       -3.09465   0.00010  -0.00485  -0.00830  -0.01331  -3.10796
   D30        0.02406   0.00012  -0.00142  -0.00996  -0.01146   0.01260
   D31        0.00943   0.00020   0.00266  -0.00024   0.00239   0.01183
   D32        3.12814   0.00022   0.00608  -0.00190   0.00424   3.13238
   D33       -2.96357   0.00003  -0.00566   0.00235  -0.00326  -2.96683
   D34        0.17187  -0.00003  -0.00588  -0.01203  -0.01783   0.15404
   D35        0.07073  -0.00003  -0.00311  -0.00307  -0.00615   0.06458
   D36       -3.07701  -0.00009  -0.00333  -0.01745  -0.02073  -3.09773
   D37        3.01509  -0.00009   0.00444  -0.00811  -0.00373   3.01135
   D38       -0.13222   0.00010   0.00807  -0.00837  -0.00036  -0.13258
   D39       -0.01782  -0.00001   0.00193  -0.00214  -0.00020  -0.01803
   D40        3.11805   0.00018   0.00556  -0.00240   0.00317   3.12123
   D41       -0.01124   0.00005   0.00281   0.00273   0.00554  -0.00570
   D42        3.13731   0.00007   0.00300   0.00429   0.00730  -3.13857
   D43        3.12210   0.00007   0.00157   0.00180   0.00336   3.12546
   D44       -0.01254   0.00009   0.00177   0.00336   0.00512  -0.00742
   D45        0.00959   0.00008   0.00208  -0.00536  -0.00327   0.00632
   D46       -3.13092   0.00003  -0.00023   0.00947   0.00924  -3.12168
   D47       -3.13909   0.00006   0.00188  -0.00695  -0.00507   3.13903
   D48        0.00359   0.00001  -0.00043   0.00787   0.00743   0.01103
   D49        0.00058  -0.00007  -0.00429   0.00513   0.00081   0.00138
   D50       -3.05972   0.00003  -0.00379   0.01057   0.00673  -3.05299
   D51        3.14108  -0.00002  -0.00199  -0.00969  -0.01168   3.12940
   D52        0.08079   0.00008  -0.00148  -0.00425  -0.00576   0.07503
   D53       -0.01063  -0.00007   0.00203  -0.00246  -0.00040  -0.01103
   D54       -3.12907  -0.00010  -0.00145  -0.00086  -0.00234  -3.13141
   D55        3.05473  -0.00016   0.00145  -0.00747  -0.00593   3.04880
   D56       -0.06370  -0.00018  -0.00202  -0.00587  -0.00788  -0.07158
   D57       -2.18090  -0.00013  -0.00292  -0.03619  -0.03907  -2.21997
   D58        1.02664  -0.00001  -0.00181  -0.04659  -0.04835   0.97829
   D59        1.04255  -0.00002  -0.00236  -0.03061  -0.03296   1.00959
   D60       -2.03309   0.00009  -0.00125  -0.04101  -0.04224  -2.07533
   D61       -0.07210   0.00005   0.00239   0.00802   0.01037  -0.06173
   D62        3.04592  -0.00013  -0.00138  -0.00390  -0.00535   3.04057
   D63        3.07569   0.00010   0.00261   0.02257   0.02527   3.10096
   D64       -0.08948  -0.00008  -0.00116   0.01065   0.00955  -0.07993
   D65        0.01901  -0.00004  -0.00045  -0.00752  -0.00798   0.01103
   D66       -3.13183  -0.00014  -0.00295  -0.01512  -0.01808   3.13328
   D67       -3.09725   0.00016   0.00364   0.00523   0.00887  -3.08838
   D68        0.03511   0.00005   0.00113  -0.00237  -0.00123   0.03387
   D69       -1.29650   0.00017   0.00928  -0.00246   0.00689  -1.28961
   D70        1.79867   0.00017   0.00769   0.00396   0.01174   1.81041
   D71        1.81978  -0.00002   0.00522  -0.01522  -0.00995   1.80983
   D72       -1.36823  -0.00002   0.00362  -0.00880  -0.00510  -1.37333
   D73       -0.03036   0.00001  -0.00019   0.00206   0.00186  -0.02850
   D74        3.13140   0.00011   0.00158   0.00756   0.00915   3.14055
   D75        3.11708  -0.00018  -0.00391   0.00235  -0.00159   3.11549
   D76       -0.00434  -0.00008  -0.00213   0.00785   0.00570   0.00136
   D77        0.02818   0.00000  -0.00057   0.00299   0.00244   0.03062
   D78       -3.10415   0.00011   0.00195   0.01060   0.01254  -3.09161
   D79       -3.13396  -0.00010  -0.00237  -0.00258  -0.00494  -3.13890
   D80        0.01690   0.00001   0.00014   0.00503   0.00516   0.02206
   D81        3.04344   0.00018   0.00171   0.02021   0.02200   3.06543
   D82       -0.14686   0.00006  -0.00168  -0.01702  -0.01869  -0.16555
   D83       -0.05247   0.00019   0.00332   0.01373   0.01711  -0.03536
   D84        3.04042   0.00006  -0.00008  -0.02349  -0.02358   3.01684
   D85       -3.05555  -0.00002   0.00147  -0.01237  -0.01098  -3.06653
   D86        0.06087  -0.00003   0.00058  -0.00454  -0.00400   0.05687
   D87        0.04003  -0.00003  -0.00009  -0.00616  -0.00628   0.03375
   D88       -3.12674  -0.00003  -0.00097   0.00166   0.00070  -3.12603
   D89       -3.02714   0.00019   0.00352  -0.00060   0.00295  -3.02419
   D90        0.18164   0.00000  -0.00040   0.00583   0.00546   0.18711
   D91        0.04829   0.00009   0.00245   0.00981   0.01227   0.06056
   D92       -3.02612  -0.00010  -0.00148   0.01624   0.01478  -3.01134
   D93        3.03977  -0.00017  -0.00358   0.00793   0.00426   3.04403
   D94       -0.06658  -0.00012  -0.00295  -0.00224  -0.00526  -0.07183
   D95       -0.03828  -0.00005  -0.00249  -0.00257  -0.00506  -0.04334
   D96        3.13856  -0.00001  -0.00186  -0.01273  -0.01458   3.12398
   D97       -0.01582   0.00003   0.00148  -0.00721  -0.00575  -0.02157
   D98       -3.11093  -0.00011  -0.00083  -0.01033  -0.01117  -3.12210
   D99        3.05916   0.00021   0.00534  -0.01321  -0.00788   3.05128
   D100      -0.03595   0.00008   0.00304  -0.01633  -0.01330  -0.04925
   D101      -2.40078  -0.00002  -0.00075   0.00878   0.00811  -2.39267
   D102       0.80786  -0.00022  -0.00467   0.01488   0.01027   0.81814
   D103       0.01625  -0.00020  -0.00391  -0.01281  -0.01675  -0.00050
   D104       3.11561  -0.00019  -0.00435  -0.01915  -0.02353   3.09208
   D105      -3.07663  -0.00008  -0.00053   0.02422   0.02357  -3.05306
   D106       0.02273  -0.00007  -0.00097   0.01789   0.01679   0.03952
   D107       2.38786   0.00027   0.00689   0.02090   0.02775   2.41561
   D108      -0.80242   0.00015   0.00350  -0.01610  -0.01254  -0.81497
   D109      -0.02774  -0.00018  -0.00540  -0.00287  -0.00827  -0.03601
   D110       3.12214  -0.00006  -0.00251   0.00507   0.00256   3.12470
   D111       3.06854  -0.00005  -0.00317   0.00023  -0.00295   3.06559
   D112      -0.06477   0.00006  -0.00028   0.00816   0.00788  -0.05689
   D113      -0.74821   0.00004   0.00013   0.01499   0.01518  -0.73303
   D114       2.43902  -0.00009  -0.00211   0.01194   0.00990   2.44893
   D115       0.03309   0.00005   0.00126   0.00408   0.00533   0.03842
   D116      -3.12056   0.00005   0.00113  -0.00249  -0.00136  -3.12192
[...]
   D13       -2.63337  -0.00000   0.01800   0.00000   0.01800  -2.61536
   D14        0.48685  -0.00003   0.00848   0.00000   0.00848   0.49533
   D15        2.08248   0.00018   0.01703   0.00000   0.01703   2.09952
   D16       -1.08048   0.00015   0.00751   0.00000   0.00751  -1.07297
   D17       -1.82506  -0.00009   0.00319   0.00000   0.00319  -1.82187
   D18        1.42761  -0.00012   0.00159   0.00000   0.00159   1.42920
   D19        2.87925  -0.00013   0.00179   0.00000   0.00179   2.88104
   D20       -0.15127  -0.00017   0.00020   0.00000   0.00020  -0.15107
   D21       -0.25176  -0.00028   0.00440   0.00000   0.00440  -0.24735
   D22        3.00091  -0.00031   0.00281   0.00000   0.00281   3.00372
   D23        1.27365   0.00016   0.00393   0.00000   0.00393   1.27758
   D24       -1.75687   0.00013   0.00234   0.00000   0.00234  -1.75453
   D25        3.11765  -0.00004  -0.01032   0.00000  -0.01032   3.10733
   D26       -0.01287  -0.00008  -0.01197   0.00000  -0.01197  -0.02483
   D27       -0.00309  -0.00002  -0.00104   0.00000  -0.00104  -0.00413
   D28       -3.13361  -0.00006  -0.00269   0.00000  -0.00269  -3.13630
   D29       -3.11335   0.00009   0.01380   0.00000   0.01380  -3.09955
   D30        0.00990   0.00008   0.01339   0.00000   0.01339   0.02329
   D31        0.00806   0.00006   0.00486   0.00000   0.00486   0.01292
   D32        3.13132   0.00006   0.00445   0.00000   0.00445   3.13576
   D33       -2.97347  -0.00003   0.00306   0.00000   0.00306  -2.97042
   D34        0.16442  -0.00014   0.00041   0.00000   0.00041   0.16483
   D35        0.06267   0.00003   0.00453   0.00000   0.00453   0.06720
   D36       -3.08262  -0.00008   0.00189   0.00000   0.00189  -3.08074
   D37        3.02018   0.00011  -0.00010   0.00000  -0.00010   3.02008
   D38       -0.11868  -0.00004  -0.00384   0.00000  -0.00384  -0.12252
   D39       -0.01432   0.00007  -0.00171   0.00000  -0.00171  -0.01603
   D40        3.13001  -0.00008  -0.00545   0.00000  -0.00545   3.12456
   D41       -0.00473  -0.00005  -0.00322   0.00000  -0.00322  -0.00795
   D42       -3.14107  -0.00001  -0.00139   0.00000  -0.00139   3.14073
   D43        3.12547  -0.00001  -0.00152   0.00000  -0.00152   3.12395
   D44       -0.01086   0.00003   0.00030   0.00000   0.00030  -0.01056
   D45        0.00780   0.00008   0.00382   0.00000   0.00382   0.01162
   D46       -3.13653   0.00009   0.00568   0.00000   0.00568  -3.13086
   D47       -3.13913   0.00004   0.00196   0.00000   0.00196  -3.13718
   D48       -0.00028   0.00006   0.00382   0.00000   0.00382   0.00353
   D49       -0.00331  -0.00004  -0.00039   0.00000  -0.00039  -0.00371
   D50       -3.06830  -0.00001   0.00487   0.00000   0.00487  -3.06343
   D51        3.14102  -0.00006  -0.00225   0.00000  -0.00225   3.13877
   D52        0.07603  -0.00002   0.00302   0.00000   0.00302   0.07905
   D53       -0.00487  -0.00003  -0.00416   0.00000  -0.00416  -0.00902
   D54       -3.12792  -0.00002  -0.00373   0.00000  -0.00373  -3.13165
   D55        3.06470  -0.00003  -0.00900   0.00000  -0.00899   3.05571
   D56       -0.05835  -0.00003  -0.00857   0.00000  -0.00857  -0.06692
   D57       -2.17346  -0.00011  -0.01207   0.00000  -0.01207  -2.18553
   D58        1.03069   0.00001  -0.00788   0.00000  -0.00788   1.02281
   D59        1.04535  -0.00009  -0.00680   0.00000  -0.00680   1.03855
   D60       -2.03368   0.00003  -0.00261   0.00000  -0.00261  -2.03629
   D61       -0.06418  -0.00015  -0.00495   0.00000  -0.00495  -0.06913
   D62        3.04897  -0.00020  -0.00411   0.00000  -0.00411   3.04486
   D63        3.08114  -0.00003  -0.00229   0.00000  -0.00229   3.07886
   D64       -0.08889  -0.00008  -0.00144   0.00000  -0.00144  -0.09034
   D65        0.01599   0.00015   0.00239   0.00000   0.00239   0.01839
   D66       -3.13696   0.00002   0.00034   0.00000   0.00034  -3.13662
   D67       -3.09495   0.00020   0.00144   0.00000   0.00144  -3.09350
   D68        0.03529   0.00007  -0.00061   0.00000  -0.00061   0.03467
   D69       -1.28212  -0.00007  -0.00236   0.00000  -0.00236  -1.28449
   D70        1.81086  -0.00011  -0.00198   0.00000  -0.00198   1.80888
   D71        1.82889  -0.00012  -0.00144   0.00000  -0.00144   1.82746
   D72       -1.36131  -0.00017  -0.00105   0.00000  -0.00105  -1.36236
   D73       -0.02952  -0.00007  -0.00052   0.00000  -0.00052  -0.03004
   D74        3.13495  -0.00007  -0.00077   0.00000  -0.00077   3.13419
   D75        3.10928   0.00009   0.00330   0.00000   0.00330   3.11258
   D76       -0.00943   0.00009   0.00306   0.00000   0.00306  -0.00638
   D77        0.02717  -0.00005   0.00011   0.00000   0.00011   0.02728
   D78       -3.10303   0.00008   0.00217   0.00000   0.00217  -3.10087
   D79       -3.13774  -0.00004   0.00037   0.00000   0.00037  -3.13738
   D80        0.01524   0.00009   0.00242   0.00000   0.00242   0.01766
   D81        3.05072  -0.00017  -0.00341   0.00000  -0.00341   3.04731
   D82       -0.14424  -0.00019  -0.00437   0.00000  -0.00437  -0.14861
   D83       -0.04300  -0.00014  -0.00379   0.00000  -0.00379  -0.04679
   D84        3.04522  -0.00016  -0.00475   0.00000  -0.00475   3.04047
   D85       -3.05737   0.00016   0.00256   0.00000   0.00256  -3.05481
   D86        0.05813   0.00011   0.00235   0.00000   0.00235   0.06048
   D87        0.03600   0.00012   0.00302   0.00000   0.00302   0.03902
   D88       -3.13169   0.00007   0.00281   0.00000   0.00281  -3.12888
   D89       -3.02473   0.00009   0.00097   0.00000   0.00097  -3.02377
   D90        0.17887   0.00005   0.00102   0.00000   0.00102   0.17989
   D91        0.05422  -0.00002  -0.00329   0.00000  -0.00329   0.05092
   D92       -3.02536  -0.00006  -0.00324   0.00000  -0.00324  -3.02860
   D93        3.03577  -0.00004  -0.00031   0.00000  -0.00031   3.03546
   D94       -0.07037  -0.00001   0.00049   0.00000   0.00049  -0.06989
   D95       -0.04539   0.00006   0.00359   0.00000   0.00359  -0.04180
   D96        3.13166   0.00008   0.00439   0.00000   0.00439   3.13605
   D97       -0.01183  -0.00008  -0.00098   0.00000  -0.00098  -0.01281
   D98       -3.10828  -0.00012  -0.00257   0.00000  -0.00257  -3.11086
   D99        3.06809  -0.00003  -0.00089   0.00000  -0.00089   3.06720
   D100      -0.02836  -0.00008  -0.00248   0.00000  -0.00248  -0.03084
   D101      -2.40707   0.00021   0.00508   0.00000   0.00508  -2.40200
   D102       0.79642   0.00017   0.00509   0.00000   0.00509   0.80150
   D103       0.00883   0.00005   0.00154   0.00000   0.00154   0.01037
   D104       3.10335   0.00012   0.00546   0.00000   0.00546   3.10881
   D105      -3.07927   0.00006   0.00237   0.00000   0.00237  -3.07690
   D106       0.01524   0.00013   0.00629   0.00000   0.00629   0.02154
   D107       2.40408  -0.00024  -0.00653   0.00000  -0.00653   2.39755
   D108      -0.79092  -0.00026  -0.00744   0.00000  -0.00744  -0.79836
   D109      -0.04049   0.00013   0.00495   0.00000   0.00495  -0.03554
   D110       3.11767   0.00001   0.00130   0.00000   0.00130   3.11897
   D111       3.05705   0.00017   0.00652   0.00000   0.00652   3.06357
   D112      -0.06798   0.00005   0.00287   0.00000   0.00287  -0.06510
   D113      -0.75018   0.00002   0.00063   0.00000   0.00063  -0.74955
   D114       2.43581  -0.00002  -0.00096   0.00000  -0.00096   2.43486
   D115       0.03290   0.00006   0.00157   0.00000   0.00157   0.03446
   D116      -3.12073   0.00003   0.00161   0.00000   0.00161  -3.11912
   D117      -3.06237  -0.00001  -0.00234   0.00000  -0.00234  -3.06471
   D118       0.06720  -0.00004  -0.00230   0.00000  -0.00230   0.06490
   D119       0.75623  -0.00006  -0.00278   0.00000  -0.00278   0.75344
   D120      -2.43202   0.00002   0.00115   0.00000   0.00115  -2.43087
   D121       0.00552  -0.00002   0.00005   0.00000   0.00005   0.00556
   D122       3.12725  -0.00006  -0.00120   0.00000  -0.00120   3.12605
   D123      -3.10968   0.00003   0.00024   0.00000   0.00024  -3.10944
   D124       0.01206  -0.00001  -0.00100   0.00000  -0.00100   0.01105
   D125      -0.00654   0.00000   0.00036   0.00000   0.00036  -0.00617
   D126      -3.12213   0.00000  -0.00073   0.00000  -0.00073  -3.12286
   D127       3.09930  -0.00003  -0.00045   0.00000  -0.00045   3.09884
   D128      -0.01629  -0.00003  -0.00155   0.00000  -0.00155  -0.01784
   D129       0.04975  -0.00009  -0.00464   0.00000  -0.00464   0.04510
   D130      -3.10857   0.00003  -0.00096   0.00000  -0.00096  -3.10953
   D131      -3.11782  -0.00009  -0.00355   0.00000  -0.00355  -3.12137
   D132       0.00705   0.00004   0.00014   0.00000   0.00014   0.00719
   D133      -0.04019  -0.00008  -0.00237   0.00000  -0.00237  -0.04256
   D134       3.11353  -0.00005  -0.00241   0.00000  -0.00241   3.11112
   D135       3.12122  -0.00004  -0.00112   0.00000  -0.00112   3.12010
   D136      -0.00824  -0.00001  -0.00116   0.00000  -0.00116  -0.00941
   D137       3.12147   0.00016  -0.00027   0.00000  -0.00027   3.12120
   D138      -0.01579   0.00009  -0.00210   0.00000  -0.00210  -0.01790
   D139      -0.00616   0.00007   0.00550   0.00000   0.00550  -0.00066
   D140       3.13976   0.00000   0.00367   0.00000   0.00367  -3.13976
   D141      -3.11841  -0.00014   0.00002   0.00000   0.00002  -3.11840
   D142       0.02884  -0.00022   0.00013   0.00000   0.00013   0.02897
   D143       0.00970  -0.00005  -0.00554   0.00000  -0.00554   0.00416
   D144      -3.12623  -0.00013  -0.00543   0.00000  -0.00543  -3.13166
   D145      -0.00105  -0.00004  -0.00203   0.00000  -0.00203  -0.00308
   D146      -3.13963  -0.00006  -0.00245   0.00000  -0.00245   3.14110
   D147       3.13619   0.00003  -0.00018   0.00000  -0.00018   3.13601
   D148      -0.00239   0.00001  -0.00061   0.00000  -0.00061  -0.00300
   D149      -0.00595  -0.00000   0.00206   0.00000   0.00206  -0.00389
   D150       3.13338   0.00004   0.00340   0.00000   0.00340   3.13678
   D151       3.13003   0.00007   0.00196   0.00000   0.00196   3.13199
   D152      -0.01382   0.00012   0.00329   0.00000   0.00329  -0.01052
   D153       0.00473  -0.00001  -0.00137   0.00000  -0.00137   0.00335
   D154      -3.13762  -0.00000  -0.00074   0.00000  -0.00074  -3.13836
   D155      -3.13989   0.00001  -0.00095   0.00000  -0.00095  -3.14084
   D156       0.00095   0.00002  -0.00032   0.00000  -0.00032   0.00063
   D157      -0.00116   0.00003   0.00135   0.00000   0.00135   0.00020
   D158       3.14119   0.00003   0.00072   0.00000   0.00072  -3.14127
   D159      -3.14047  -0.00001   0.00000   0.00000   0.00000  -3.14046
   D160       0.00188  -0.00002  -0.00063   0.00000  -0.00063   0.00125
         Item               Value     Threshold  Converged?
 Maximum Force            0.001228     0.000450     NO 
 RMS     Force            0.000191     0.000300     YES
 Maximum Displacement     0.056930     0.001800     NO 
 RMS     Displacement     0.008670     0.001200     NO 
 Predicted change in Energy=-3.367386D-05
 GradGradGradGradGradGradGradGradGradGradGradGradGradGradGradGradGradGrad

 Stoichiometry    C32H19MnN3O3S2(1+)
 Framework group  C1[X(C32H19MnN3O3S2)]
 Deg. of freedom   174
 Full point group                 C1      NOp   1
 Largest Abelian subgroup         C1      NOp   1
 Largest concise Abelian subgroup C1      NOp   1
                         Standard orientation:                         
 ---------------------------------------------------------------------
 Center     Atomic      Atomic             Coordinates (Angstroms)
 Number     Number       Type             X           Y           Z
 ---------------------------------------------------------------------
      1         25           0        3.178199    0.190368   -0.406406
      2          6           0        3.965080   -0.432912   -1.941564
      3          6           0        4.577466   -0.433168    0.584543
      4          6           0        4.008781    1.819495   -0.528385
      5          7           0        1.642590    0.952508   -1.493911
      6          7           0        2.120211    0.835850    1.354574
      7          7           0        2.094998   -1.671138   -0.203530
      8          6           0        2.741860    1.202383    2.489251
      9          6           0        2.053626    1.654899    3.606414
     10          6           0        0.663388    1.748148    3.564910
     11          6           0        0.005359    1.366966    2.396874
     12          6           0        0.789511    0.917632    1.335819
     13          6           0        0.795085   -1.740229   -0.500404
     14          6           0       -0.023399   -2.832393   -0.218652
     15          6           0        2.654504   -2.768035    0.337250
     16          6           0        1.937421   -3.926190    0.604493
     17          6           0        0.570029   -3.961797    0.340079
     18          6           0       -1.479665   -2.695754   -0.503555
     19          6           0       -1.461879    1.504159    2.180009
     20          6           0       -2.275717    0.414889    1.810427
     21          6           0       -2.290651   -1.901909    0.329168
     22          6           0       -3.622420    0.628671    1.482023
     23          6           0       -3.633568   -1.683118   -0.003656
     24          6           0       -2.046365   -3.302965   -1.627125
     25          6           0       -2.036914    2.776909    2.270864
     26          6           0       -3.377139    2.981380    1.954796
     27          6           0       -3.385190   -3.090096   -1.948807
     28          6           0       -4.173434   -2.261949   -1.155006
     29          6           0       -4.165371    1.914827    1.534281
     30         16           0       -1.631884   -1.244445    1.848207
     31         16           0       -4.688186   -0.726622    1.056849
     32          1           0        2.610179    1.937926    4.499921
     33          1           0        0.101387    2.110798    4.427929
     34          1           0        0.291681    0.626804    0.417972
     35          1           0        0.350240   -0.879177   -0.990513
     36          1           0        3.718702   -2.726187    0.567666
     37          1           0        2.450988   -4.784656    1.037612
     38          1           0       -0.025109   -4.846147    0.575680
     39          1           0       -1.420131   -3.928401   -2.266311
     40          1           0       -1.410255    3.622387    2.562104
     41          1           0       -3.804932    3.983392    2.014306
     42          1           0       -3.813521   -3.557803   -2.836808
     43          1           0       -5.215115   -2.069714   -1.419111
     44          1           0       -5.209224    2.072300    1.255998
     45          8           0        5.487812   -0.786242    1.180268
     46          8           0        4.519332    2.837404   -0.600220
     47          8           0        4.445743   -0.834244   -2.895129
     48          1           0        3.830714    1.140660    2.503838
     49          6           0        0.701910    1.363253   -2.023678
     50          6           0       -0.561132    1.772773   -2.559321
     51          6           0       -0.652453    2.413755   -3.802847
     52          6           0       -1.714328    1.489533   -1.806215
     53          6           0       -1.907086    2.768584   -4.287600
     54          1           0        0.249249    2.626539   -4.378465
     55          6           0       -2.959917    1.846817   -2.306681
     56          1           0       -1.640935    0.998859   -0.834312
     57          6           0       -3.054790    2.485036   -3.544789
     58          1           0       -1.990196    3.268216   -5.253861
     59          1           0       -3.856156    1.623529   -1.725296
     60          1           0       -4.034723    2.765109   -3.935868
 ---------------------------------------------------------------------
 Rotational constants (GHZ):           0.1123681           0.0673466           0.0661944
 Basis read from rwf:  (5D, 7F)
 There are   755 symmetry adapted cartesian basis functions of A   symmetry.
 There are   708 symmetry adapted basis functions of A   symmetry.
   708 basis functions,  1259 primitive gaussians,   755 cartesian basis functions
   156 alpha electrons      156 beta electrons
       nuclear repulsion energy      5759.9856106789 Hartrees.
 NAtoms=   60 NActive=   60 NUniq=   60 SFac= 1.00D+00 NAtFMM=   60 NAOKFM=T Big=T
 Integral buffers will be    131072 words long.
 Raffenetti 2 integral format.
 Two-electron integral symmetry is turned on.
 Nuclear repulsion after empirical dispersion term =     5759.9206524957 Hartrees.
 ------------------------------------------------------------------------------
 Polarizable Continuum Model (PCM)
 =================================
 Model                : PCM.
 Atomic radii         : UFF (Universal Force Field).
 Polarization charges : Total charges.
 Charge compensation  : None.
 Solution method      : On-the-fly selection.
 Cavity type          : Scaled VdW (van der Waals Surface) (Alpha=1.100).
 Cavity algorithm     : GePol (No added spheres)
                        Default sphere list used, NSphG=   60.
                        Lebedev-Laikov grids with approx.  5.0 points / Ang**2.
                        Smoothing algorithm: York/Karplus (Gamma=1.0000).
                        Polarization charges: spherical gaussians, with
                                              point-specific exponents (IZeta= 3).
                        Self-potential: point-specific (ISelfS= 7).
                        Self-field    : sphere-specific E.n sum rule (ISelfD= 2).
 1st derivatives      : Analytical E(r).r(x)/FMM algorithm (CHGder, D1EAlg=3).
                        Cavity 1st derivative terms included.
 Solvent              : TetraHydroFuran, Eps=   7.425700 Eps(inf)=   1.974025
 ------------------------------------------------------------------------------
 One-electron integrals computed using PRISM.
 PrsmSu:  requested number of processors reduced to:  11 ShMem   1 Linda.
 NBasis=   708 RedAO= T EigKep=  2.24D-04  NBF=   708
 NBsUse=   708 1.00D-06 EigRej= -1.00D+00 NBFU=   708
 Initial guess from the checkpoint file:  "checkpoint.chk"
 B after Tr=    -0.000000   -0.000000    0.000000
         Rot=    0.999879    0.015540   -0.000505    0.000485 Ang=   1.78 deg.
 ExpMin= 3.93D-02 ExpMax= 2.77D+05 ExpMxC= 2.68D+03 IAcc=3 IRadAn=         5 AccDes= 0.00D+00
 Harris functional with IExCor= 4639 and IRadAn=       5 diagonalized for initial guess.
 HarFok:  IExCor= 4639 AccDes= 0.00D+00 IRadAn=         5 IDoV= 1 UseB2=F ITyADJ=14
 ICtDFT=  3500011 ScaDFX=  1.000000  1.000000  1.000000  1.000000
 FoFCou: FMM=F IPFlag=           0 FMFlag=      100000 FMFlg1=        2001
         NFxFlg=           0 DoJE=T BraDBF=F KetDBF=T FulRan=T
         wScrn=  0.000000 ICntrl=       500 IOpCl=  0 I1Cent=   200000004 NGrid=           0
         NMat0=    1 NMatS0=      1 NMatT0=    0 NMatD0=    1 NMtDS0=    0 NMtDT0=    0
 Petite list used in FoFCou.
 Requested convergence on RMS density matrix=1.00D-08 within 128 cycles.
 Requested convergence on MAX density matrix=1.00D-06.
 Requested convergence on             energy=1.00D-06.
 No special actions if energy rises.
 CoulSu:  requested number of processors reduced to:  20 ShMem   1 Linda.
 CoulSu:  requested number of processors reduced to:  11 ShMem   1 Linda.
 Inv3:  Mode=1 IEnd=    61698675.
 Iteration    1 A*A^-1 deviation from unit magnitude is 3.22D-15 for   3051.
 Iteration    1 A*A^-1 deviation from orthogonality  is 2.44D-15 for   4233    179.
 Iteration    1 A^-1*A deviation from unit magnitude is 3.33D-15 for    227.
 Iteration    1 A^-1*A deviation from orthogonality  is 2.37D-15 for   3770   2455.
 CoulSu:  requested number of processors reduced to:  11 ShMem   1 Linda.
 CoulSu:  requested number of processors reduced to:  11 ShMem   1 Linda.
