 Entering Gaussian System, Link 0=g16
 Initial command:
 /home1/apps/gaussian/16rA.03/g16/l1.exe "/tmp/Gau-86540.inp" -scrdir="/tmp/"
 Entering Link 1 = /home1/apps/gaussian/16rA.03/g16/l1.exe PID=     86543.
  
 Copyright (c) 1988,1990,1992,1993,1995,1998,2003,2009,2016,
            Gaussian, Inc.  All Rights Reserved.
  
 This is part of the Gaussian(R) 16 program.  It is based on
 the Gaussian(R) 09 system (copyright 2009, Gaussian, Inc.),
 the Gaussian(R) 03 system (copyright 2003, Gaussian, Inc.),
 the Gaussian(R) 98 system (copyright 1998, Gaussian, Inc.),
 the Gaussian(R) 94 system (copyright 1995, Gaussian, Inc.),
 the Gaussian 92(TM) system (copyright 1992, Gaussian, Inc.),
 the Gaussian 90(TM) system (copyright 1990, Gaussian, Inc.),
 the Gaussian 88(TM) system (copyright 1988, Gaussian, Inc.),
 the Gaussian 86(TM) system (copyright 1986, Carnegie Mellon
 University), and the Gaussian 82(TM) system (copyright 1983,
 Carnegie Mellon University). Gaussian is a federally registered
 trademark of Gaussian, Inc.
  
 This software contains proprietary and confidential information,
 including trade secrets, belonging to Gaussian, Inc.
  
 This software is provided under written license and may be
 used, copied, transmitted, or stored only in accord with that
 written license.
  
 The following legend is applicable only to US Government
 contracts under FAR:
  
                    RESTRICTED RIGHTS LEGEND
  
 Use, reproduction and disclosure by the US Government is
 subject to restrictions as set forth in subparagraphs (a)
 and (c) of the Commercial Computer Software - Restricted
 Rights clause in FAR 52.227-19.
  
 Gaussian, Inc.
 340 Quinnipiac St., Bldg. 40, Wallingford CT 06492
  
  
 ---------------------------------------------------------------
 Warning -- This program may not be used in any manner that
 competes with the business of Gaussian, Inc. or will provide
 assistance to any competitor of Gaussian, Inc.  The licensee
 of this program is prohibited from giving any competitor of
 Gaussian, Inc. access to this program.  By using this program,
 the user acknowledges that Gaussian, Inc. is engaged in the
 business of creating and licensing software in the field of
 computational chemistry and represents and warrants to the
 licensee that it is not a competitor of Gaussian, Inc. and that
 it will not use this program in any manner prohibited above.
 ---------------------------------------------------------------
  

 Cite this work as:
 Gaussian 16, Revision A.03,
 M. J. Frisch, G. W. Trucks, H. B. Schlegel, G. E. Scuseria, 
 M. A. Robb, J. R. Cheeseman, G. Scalmani, V. Barone, 
 G. A. Petersson, H. Nakatsuji, X. Li, M. Caricato, A. V. Marenich, 
 J. Bloino, B. G. Janesko, R. Gomperts, B. Mennucci, H. P. Hratchian, 
 J. V. Ortiz, A. F. Izmaylov, J. L. Sonnenberg, D. Williams-Young, 
 F. Ding, F. Lipparini, F. Egidi, J. Goings, B. Peng, A. Petrone, 
 T. Henderson, D. Ranasinghe, V. G. Zakrzewski, J. Gao, N. Rega, 
 G. Zheng, W. Liang, M. Hada, M. Ehara, K. Toyota, R. Fukuda, 
 J. Hasegawa, M. Ishida, T. Nakajima, Y. Honda, O. Kitao, H. Nakai, 
 T. Vreven, K. Throssell, J. A. Montgomery, Jr., J. E. Peralta, 
 F. Ogliaro, M. J. Bearpark, J. J. Heyd, E. N. Brothers, K. N. Kudin, 
 V. N. Staroverov, T. A. Keith, R. Kobayashi, J. Normand, 
 K. Raghavachari, A. P. Rendell, J. C. Burant, S. S. Iyengar, 
 J. Tomasi, M. Cossi, J. M. Millam, M. Klene, C. Adamo, R. Cammi, 
 J. W. Ochterski, R. L. Martin, K. Morokuma, O. Farkas, 
 J. B. Foresman, and D. J. Fox, Gaussian, Inc., Wallingford CT, 2016.
 
 ******************************************
 Gaussian 16:  ES64L-G16RevA.03 25-Dec-2016
                25-Nov-2022 
 ******************************************
 %Chk=checkpoint.chk
 %NProcShared=12
 Will use up to   12 processors via shared memory.
 ------------------------------------------------------
 # wB97XD Gen Opt=(QST3) SCRF=(Solvent=TetraHydroFuran)
 ------------------------------------------------------
 1/5=1,18=20,26=3,27=203,38=1/1,3;
 2/9=110,12=2,17=6,18=5,40=1/2;
 3/5=7,11=2,25=1,30=1,70=2201,71=1,72=20,74=-58/1,2,3;
 4//1;
 5/5=2,38=5,53=20/2;
 6/7=2,8=2,9=2,10=2,28=1/1;
 7//1,2,3,16;
 1/5=1,18=20,26=3,27=203/3(2);
 2/9=110/2;
 99//99;
 2/9=110/2;
 3/5=7,6=1,11=2,25=1,30=1,70=2205,71=1,72=20,74=-58,82=7/1,2,3;
 4/5=5,16=3,69=1/1;
 5/5=2,38=5,53=20/2;
 7//1,2,3,16;
 1/5=1,18=20,26=3,27=203/3(-5);
 2/9=110/2;
 6/7=2,8=2,9=2,10=2,19=2,28=1/1;
 99/9=1/99;
 ----------------------------
 Mn Transition State Reactant
 ----------------------------
 Symbolic Z-matrix:
 Charge =  0 Multiplicity = 1
 Mn                    8.53943   3.05136   14.82234 
 C                     10.14405   3.62325   15.4818 
 O                     11.14603   3.97828   15.89999 
 C                     8.87994   3.72439   13.15805 
 O                     9.08476   4.14211   12.11476 
 C                     9.27412   1.45385   14.35118 
 N                     6.5707    2.41644   14.11442 
 C                     4.38528   2.96878   13.30296 
 C                     3.9907    1.63964   13.37937 
 C                     6.18922   1.13786   14.15492 
 H                     3.69328   3.74878   12.98496 
 H                     2.9723    1.34023   13.12043 
 N                     7.65768   4.79661   15.39119 
 C                     7.11173   5.74386   15.76021 
 C                     6.46247   6.93804   16.22464 
 C                     5.21452   6.84187   16.85627 
 C                     4.60771   8.01077   17.30908 
 C                     7.09975   8.17719   16.04617 
 H                     4.75458   5.84974   16.98464 
 H                     8.0733    8.2283    15.55357 
 N                     8.02314   2.29527   16.81764 
 C                     7.47702   2.70609   19.11462 
 C                     7.13492   1.37322   19.30059 
 H                     7.37815   3.43523   19.91915 
 C                     5.6693    3.31482   13.69336 
 H                     5.98653   4.35695   13.6716 
 C                     7.89858   3.12552   17.8626 
 H                     8.14242   4.17318   17.69009 
 H                     3.63667   7.94769   17.80489 
 O                     9.74033   0.45241   14.05281 
 S                     4.78343  -0.43501   16.67122 
 S                     4.20438  -3.59257   16.8385 
 C                     4.91165   0.69147   13.82145 
 C                     4.58351  -0.7585    13.94133 
 C                     4.28211  -1.50068   12.79503 
 C                     4.01538  -2.86487   12.87613 
 C                     4.05017  -3.50782   14.10942 
 C                     4.30478  -2.7739    15.26987 
 C                     4.56991  -1.39974   15.19533 
 H                     4.28157  -0.99702   11.82503 
 H                     3.79545  -3.43447   11.97055 
 H                     3.86855  -4.58255   14.18432 
 C                     5.85066  -1.50747   17.60134 
 C                     5.59017  -2.88198   17.68373 
 C                     6.38534  -3.70421   18.48496 
 C                     7.41481  -3.15107   19.23954 
 C                     7.67965  -1.78642   19.16066 
 C                     6.92239  -0.95541   18.32894 
 H                     6.18231  -4.77721   18.51835 
 H                     8.02551  -3.79115   19.88016 
 H                     8.50366  -1.35166   19.73215 
 C                     7.25932   0.49371   18.22666 
 H                     6.75528   1.01767   20.2615 
 C                     7.72688   1.00925   17.01896 
 H                     7.87101   0.32357   16.18359 
 H                     6.93184   0.40046   14.4608 
 C                     5.23274   9.24458   17.13768 
 C                     6.477     9.32981   16.50692 
 H                     6.96219   10.29971   16.37843 
 H                     4.74903   10.15479   17.50156 
 Br                    4.50673   3.37374   16.98583 
 
 Add virtual bond connecting atoms N7         and Mn1        Dist= 4.13D+00.
 Add virtual bond connecting atoms N21        and Mn1        Dist= 4.15D+00.
 Add virtual bond connecting atoms Br61       and H19        Dist= 4.70D+00.
 ---------------------------
 Mn Transition State Product
 ---------------------------
 Symbolic Z-matrix:
 Charge =  0 Multiplicity = 1
 Mn                    6.36588   3.47442   16.21992 
 C                     7.50596   4.47423   17.22516 
 O                     8.20133   5.06927   17.91161 
 C                     6.25306   4.64886   14.83816 
 O                     6.12729   5.33918   13.93414 
 C                     7.76357   2.68602   15.42109 
 N                     4.88625   2.24029   15.23665 
 C                     2.62731   1.75258   14.60325 
 C                     2.99941   0.49798   14.12903 
 C                     5.24157   1.05094   14.73993 
 H                     1.58934   2.0871    14.56274 
 H                     2.2576   -0.19089   13.71677 
 N                     9.42718   5.87773   14.87564 
 C                     8.87212   6.87247   15.08065 
 C                     8.15647   8.09582   15.3389 
 C                     6.95427   8.057     16.06022 
 C                     6.26297   9.24057   16.29858 
 C                     8.66258   9.31253   14.85996 
 H                     6.55641   7.10871   16.43046 
 H                     9.59865   9.32883   14.29746 
 N                     6.27116   1.99141   17.80585 
 C                     5.58206   1.28251   19.98835 
 C                     6.06103  -0.00368   19.75489 
 H                     5.10706   1.54557   20.93505 
 C                     3.59088   2.58355   15.16025 
 H                     3.32551   3.55807   15.5754 
 C                     5.69288   2.24232   18.99079 
 H                     5.29636   3.25058   19.12841 
 H                     5.32597   9.2126    16.85992 
 O                     8.69707   2.2595    14.90268 
 S                     4.98029  -1.83597   16.46737 
 S                     6.23586  -4.61485   15.53148 
 C                     4.34155   0.12854   14.2061 
 C                     4.84828  -1.20848   13.77947 
 C                     4.9511   -1.53319   12.42372 
 C                     5.47744  -2.75981   12.02426 
 C                     5.91449  -3.67899   12.97403 
 C                     5.78085  -3.38698   14.33347 
 C                     5.24495  -2.15782   14.73959 
 H                     4.63199  -0.80236   11.67648 
 H                     5.56576  -2.99544   10.96119 
 H                     6.35186  -4.63089   12.66275 
 C                     6.5235   -2.39077   17.15302 
 C                     7.05585  -3.62422   16.75489 
 C                     8.21764  -4.11423   17.35549 
 C                     8.82418  -3.39005   18.37775 
 C                     8.30614  -2.15655   18.76719 
 C                     7.16804  -1.6306    18.14765 
 H                     8.63812  -5.06716   17.02478 
 H                     9.72199  -3.78276   18.86068 
 H                     8.80137  -1.57623   19.54972 
 C                     6.65679  -0.2798    18.52476 
 H                     5.9615   -0.78586   20.51191 
 C                     6.75742   0.76266   17.60234 
 H                     7.26015   0.5678    16.65413 
 H                     6.30055   0.79032   14.76193 
 C                     6.76387   10.45322   15.8233 
 C                     7.96068   10.4886   15.1061 
 H                     8.35022   11.43889   14.73362 
 H                     6.21602   11.37982   16.01261 
 Br                    4.5484    5.02387   17.34451 
 
 Add virtual bond connecting atoms H19        and C2         Dist= 5.50D+00.
 Add virtual bond connecting atoms H19        and O3         Dist= 5.69D+00.
 Add virtual bond connecting atoms H19        and C4         Dist= 5.57D+00.
 Add virtual bond connecting atoms H19        and Br61       Dist= 5.74D+00.
 --------------------------------
 Mn Transition State Inital Guess
 --------------------------------
 Symbolic Z-matrix:
 Charge =  0 Multiplicity = 1
 Mn                    7.72488   3.24207   15.24963 
 C                     9.29056   3.89163   15.91526 
 O                     10.30887   4.27351   16.27466 
 C                     8.1027    3.96548   13.6209 
 O                     8.40693   4.38833   12.60077 
 C                     8.68568   1.80625   14.71164 
 N                     6.12855   2.29322   14.09568 
 C                     4.10611   2.48118   12.82768 
 C                     3.85677   1.11904   12.97692 
 C                     5.90992   0.98244   14.17779 
 H                     3.41728   3.12321   12.27597 
 H                     2.95409   0.66946   12.55481 
 N                     7.20445   5.36357   15.60882 
 C                     7.01513   6.48086   15.82829 
 C                     6.63424   7.81595   16.1993 
 C                     5.46149   7.98377   16.95098 
 C                     5.07536   9.26496   17.33051 
 C                     7.41481   8.91901   15.82784 
 H                     4.86806   7.10882   17.22783 
 H                     8.32553   8.77149   15.24354 
 N                     7.72959   2.18143   17.17174 
 C                     7.60013   2.22012   19.56191 
 C                     7.29018   0.86231   19.5921 
 H                     7.67005   2.80228   20.48238 
 C                     5.23353   3.02896   13.42122 
 H                     5.42014   4.1046    13.37384 
 C                     7.78799   2.84216   18.33639 
 H                     7.97195   3.91807   18.28011 
 H                     4.16342   9.40419   17.91551 
 O                     9.41127   1.00343   14.32516 
 S                     4.81011  -0.88537   16.60691 
 S                     4.4449   -4.04574   16.67692 
 C                     4.77793   0.33792   13.67652 
 C                     4.61235  -1.136     13.83292 
 C                     4.36906  -1.89477   12.68014 
 C                     4.21957  -3.27662   12.73665 
 C                     4.30626  -3.93169   13.95969 
 C                     4.50523  -3.1909    15.12649 
 C                     4.66973  -1.79845   15.07913 
 H                     4.31977  -1.38334   11.71565 
 H                     4.04659  -3.84715   11.82139 
 H                     4.20606  -5.01825   14.01916 
 C                     5.95249  -1.89157   17.5395 
 C                     5.78219  -3.28389   17.55447 
 C                     6.61363  -4.10145   18.32294 
 C                     7.59209  -3.52597   19.1253 
 C                     7.75655  -2.14458   19.13193 
 C                     6.96256  -1.30818   18.336 
 H                     6.48049  -5.18575   18.29652 
 H                     8.23677  -4.15769   19.74068 
 H                     8.53717  -1.69473   19.75038 
 C                     7.22655   0.15882   18.38825 
 H                     7.09834   0.35574   20.54178 
 C                     7.48945   0.87292   17.21895 
 H                     7.49931   0.32817   16.27682 
 H                     6.66886   0.37764   14.6712 
 C                     5.85074   10.36673   16.96393 
 C                     7.01625   10.19454   16.21568 
 H                     7.6205    11.05991   15.93365 
 H                     5.54263   11.37124   17.26499 
 Br                    5.23222   3.54341   16.56447 
 

 GradGradGradGradGradGradGradGradGradGradGradGradGradGradGradGradGradGrad
 Berny optimization.
 Initialization pass.
                           ----------------------------
                           !    Initial Parameters    !
                           ! (Angstroms and Degrees)  !
 --------------------------                            --------------------------
 ! Name  Definition         TS        Reactant Product Derivative Info.         !
 --------------------------------------------------------------------------------
 ! R1    R(1,2)             1.8211    1.8267    1.8193 estimate D2E/DX2         !
 ! R2    R(1,4)             1.8218    1.8272    1.8169 estimate D2E/DX2         !
 ! R3    R(1,6)             1.8095    1.8204    1.7926 estimate D2E/DX2         !
 ! R4    R(1,7)             2.1864    2.1864    2.1631 estimate D2E/DX2         !
 ! R5    R(1,13)            2.2137    2.0364    4.1176 estimate D2E/DX2         !
 ! R6    R(1,21)            2.1953    2.1953    2.1734 estimate D2E/DX2         !
 ! R7    R(1,61)            2.8342    4.5877    2.6398 estimate D2E/DX2         !
 ! R8    R(2,3)             1.1454    1.1423    1.144  estimate D2E/DX2         !
 ! R9    R(2,19)            5.6242    6.0218    2.911  estimate D2E/DX2         !
 ! R10   R(3,19)            6.2089    6.7475    3.0098 estimate D2E/DX2         !
 ! R11   R(4,5)             1.1454    1.1423    1.1444 estimate D2E/DX2         !
 ! R12   R(4,19)            5.7752    6.0149    2.9459 estimate D2E/DX2         !
 ! R13   R(6,30)            1.1491    1.1442    1.1498 estimate D2E/DX2         !
 ! R14   R(7,10)            1.3314    1.3349    1.337  estimate D2E/DX2         !
 ! R15   R(7,25)            1.3406    1.3405    1.3423 estimate D2E/DX2         !
 ! R16   R(8,9)             1.3928    1.3886    1.3919 estimate D2E/DX2         !
 ! R17   R(8,11)            1.0914    1.0901    1.0913 estimate D2E/DX2         !
 ! R18   R(8,25)            1.3869    1.386     1.389  estimate D2E/DX2         !
 ! R19   R(9,12)            1.0932    1.0926    1.0931 estimate D2E/DX2         !
 ! R20   R(9,33)            1.3958    1.3938    1.3942 estimate D2E/DX2         !
 ! R21   R(10,33)           1.3957    1.3938    1.3949 estimate D2E/DX2         !
 ! R22   R(10,56)           1.0887    1.0903    1.0908 estimate D2E/DX2         !
 ! R23   R(13,14)           1.1543    1.1539    1.1574 estimate D2E/DX2         !
 ! R24   R(14,15)           1.4371    1.4364    1.4406 estimate D2E/DX2         !
 ! R25   R(15,16)           1.403     1.402     1.4025 estimate D2E/DX2         !
 ! R26   R(15,18)           1.4014    1.4048    1.4021 estimate D2E/DX2         !
 ! R27   R(16,17)           1.3909    1.3927    1.3912 estimate D2E/DX2         !
 ! R28   R(16,19)           1.0929    1.1011    1.093  estimate D2E/DX2         !
 ! R29   R(17,29)           1.0924    1.0921    1.0926 estimate D2E/DX2         !
 ! R30   R(17,57)           1.3962    1.3937    1.3955 estimate D2E/DX2         !
 ! R31   R(18,20)           1.0921    1.0923    1.0922 estimate D2E/DX2         !
 ! R32   R(18,58)           1.3915    1.3888    1.3915 estimate D2E/DX2         !
 ! R33   R(19,61)           3.6448    2.4884    3.0355 estimate D2E/DX2         !
 ! R34   R(21,27)           1.3403    1.3404    1.3422 estimate D2E/DX2         !
 ! R35   R(21,54)           1.3312    1.335     1.337  estimate D2E/DX2         !
 ! R36   R(22,23)           1.3931    1.3886    1.3922 estimate D2E/DX2         !
 ! R37   R(22,24)           1.0914    1.0903    1.0914 estimate D2E/DX2         !
 ! R38   R(22,27)           1.3871    1.3861    1.3888 estimate D2E/DX2         !
 ! R39   R(23,52)           1.3958    1.3937    1.3944 estimate D2E/DX2         !
 ! R40   R(23,53)           1.0933    1.0927    1.0931 estimate D2E/DX2         !
 ! R41   R(25,26)           1.0927    1.0896    1.092  estimate D2E/DX2         !
 ! R42   R(27,28)           1.093     1.0894    1.0921 estimate D2E/DX2         !
 ! R43   R(31,39)           1.7854    1.7761    1.7773 estimate D2E/DX2         !
 ! R44   R(31,43)           1.7853    1.776     1.7775 estimate D2E/DX2         !
 ! R45   R(32,38)           1.7715    1.7723    1.7748 estimate D2E/DX2         !
 ! R46   R(32,44)           1.7717    1.7719    1.775  estimate D2E/DX2         !
 ! R47   R(33,34)           1.4914    1.4915    1.4921 estimate D2E/DX2         !
 ! R48   R(34,35)           1.4014    1.3985    1.3979 estimate D2E/DX2         !
 ! R49   R(34,39)           1.4125    1.4085    1.4073 estimate D2E/DX2         !
 ! R50   R(35,36)           1.3911    1.3924    1.3933 estimate D2E/DX2         !
 ! R51   R(35,40)           1.0928    1.093     1.0928 estimate D2E/DX2         !
 ! R52   R(36,37)           1.3901    1.3913    1.3921 estimate D2E/DX2         !
 ! R53   R(36,41)           1.0923    1.0922    1.0924 estimate D2E/DX2         !
 ! R54   R(37,38)           1.3963    1.3965    1.3969 estimate D2E/DX2         !
 ! R55   R(37,42)           1.0928    1.0925    1.0928 estimate D2E/DX2         !
 ! R56   R(38,39)           1.4029    1.4015    1.4011 estimate D2E/DX2         !
 ! R57   R(43,44)           1.4028    1.4014    1.4012 estimate D2E/DX2         !
 ! R58   R(43,48)           1.4124    1.4081    1.408  estimate D2E/DX2         !
 ! R59   R(44,45)           1.3965    1.3965    1.3966 estimate D2E/DX2         !
 ! R60   R(45,46)           1.3901    1.3911    1.3919 estimate D2E/DX2         !
 ! R61   R(45,49)           1.0928    1.0926    1.0928 estimate D2E/DX2         !
 ! R62   R(46,47)           1.3912    1.3924    1.3934 estimate D2E/DX2         !
 ! R63   R(46,50)           1.0924    1.0923    1.0925 estimate D2E/DX2         !
 ! R64   R(47,48)           1.4012    1.3985    1.3985 estimate D2E/DX2         !
 ! R65   R(47,51)           1.0928    1.093     1.0929 estimate D2E/DX2         !
 ! R66   R(48,52)           1.4915    1.4913    1.4927 estimate D2E/DX2         !
 ! R67   R(52,54)           1.3951    1.3939    1.3956 estimate D2E/DX2         !
 ! R68   R(54,55)           1.0883    1.0903    1.0908 estimate D2E/DX2         !
 ! R69   R(57,58)           1.3957    1.3976    1.3957 estimate D2E/DX2         !
 ! R70   R(57,60)           1.093     1.0931    1.093  estimate D2E/DX2         !
 ! R71   R(58,59)           1.0925    1.0921    1.0925 estimate D2E/DX2         !
 ! A1    A(2,1,4)          90.3917   92.8546   95.9628 estimate D2E/DX2         !
 ! A2    A(2,1,6)          86.2842   90.7827   89.9612 estimate D2E/DX2         !
 ! A3    L(2,1,7,4,-1)    171.8742  181.7     184.8526 estimate D2E/DX2         !
 ! A4    L(2,1,7,4,-2)    170.1711  182.2242  184.5116 estimate D2E/DX2         !
 ! A5    A(2,1,13)         78.5205   90.6413   52.6799 estimate D2E/DX2         !
 ! A6    A(2,1,21)         81.3998   89.2148   89.949  estimate D2E/DX2         !
 ! A7    A(2,1,61)        123.2738  125.4445   82.7321 estimate D2E/DX2         !
 ! A8    A(4,1,6)          86.5118   90.7039   89.6449 estimate D2E/DX2         !
 ! A9    A(4,1,7)          81.4825   88.8455   88.8898 estimate D2E/DX2         !
 ! A10   A(4,1,13)         79.2379   91.1142   54.5925 estimate D2E/DX2         !
 ! A11   L(4,1,21,2,-1)   171.7915  182.0694  185.9118 estimate D2E/DX2         !
 ! A12   L(4,1,21,2,-2)   190.1849  177.6669  176.9755 estimate D2E/DX2         !
 ! A13   A(4,1,61)        123.706   124.5728   84.3664 estimate D2E/DX2         !
 ! A14   A(6,1,7)          83.4769   91.4192   94.5798 estimate D2E/DX2         !
 ! A15   L(6,1,13,2,-1)   164.8047  181.4239  142.6411 estimate D2E/DX2         !
 ! A16   L(6,1,13,2,-2)   165.4131  181.8915   53.9444 estimate D2E/DX2         !
 ! A17   A(6,1,21)         82.8662   91.5997   93.3856 estimate D2E/DX2         !
 ! A18   L(6,1,61,2,-1)   209.558   216.2271  172.6933 estimate D2E/DX2         !
 ! A19   L(6,1,61,2,-2)   218.411   227.8736  173.161  estimate D2E/DX2         !
 ! A20   A(7,1,13)        109.2624   87.1017  133.8796 estimate D2E/DX2         !
 ! A21   A(7,1,21)        104.7145   88.9976   84.9849 estimate D2E/DX2         !
 ! A22   A(7,1,61)         69.443    51.7992   93.3009 estimate D2E/DX2         !
 ! A23   A(13,1,21)       108.7502   86.5286  131.9827 estimate D2E/DX2         !
 ! A24   L(1,2,3,13,-1)   182.1258  179.9983  183.2902 estimate D2E/DX2         !
 ! A25   L(1,2,3,18,-1)   181.7885  180.0385  183.0734 estimate D2E/DX2         !
 ! A26   L(1,2,3,13,-2)   183.5735  179.5576  180.7791 estimate D2E/DX2         !
 ! A27   L(1,2,3,18,-2)   183.1925  179.6687  178.5007 estimate D2E/DX2         !
 ! A28   A(1,2,19)         67.2499   54.5256   98.1695 estimate D2E/DX2         !
 ! A29   L(1,4,5,19,-1)   182.9852  179.8374  183.2746 estimate D2E/DX2         !
 ! A30   L(1,4,5,8,-1)    182.6076  179.5646  176.0738 estimate D2E/DX2         !
 ! A31   L(1,4,5,8,-2)    182.6792  180.1368  181.0762 estimate D2E/DX2         !
 ! A32   L(1,4,5,19,-2)   177.4954  180.5196  182.4104 estimate D2E/DX2         !
 ! A33   A(1,4,19)         62.7161   54.7518   97.0241 estimate D2E/DX2         !
 ! A34   A(5,4,19)        120.2691  125.0856   86.2505 estimate D2E/DX2         !
 ! A35   L(1,6,30,10,-1)  186.8236  180.2367  183.7554 estimate D2E/DX2         !
 ! A36   L(1,6,30,10,-2)  175.1951  179.8401  177.6334 estimate D2E/DX2         !
 ! A37   A(1,7,10)        120.9707  121.7127  119.6445 estimate D2E/DX2         !
 ! A38   A(1,7,25)        120.9845  120.8364  122.6906 estimate D2E/DX2         !
 ! A39   A(10,7,25)       117.4963  117.3406  117.5691 estimate D2E/DX2         !
 ! A40   A(9,8,11)        121.0987  121.369   121.1935 estimate D2E/DX2         !
 ! A41   A(9,8,25)        119.0745  119.1273  119.3683 estimate D2E/DX2         !
 ! A42   A(11,8,25)       119.8072  119.4476  119.4277 estimate D2E/DX2         !
 ! A43   A(8,9,12)        120.573   120.9381  121.006  estimate D2E/DX2         !
 ! A44   A(8,9,33)        118.8741  118.7415  118.5135 estimate D2E/DX2         !
 ! A45   A(12,9,33)       120.5528  120.3065  120.4756 estimate D2E/DX2         !
 ! A46   A(7,10,33)       124.4473  124.1563  123.9825 estimate D2E/DX2         !
 ! A47   A(7,10,56)       117.4128  117.4933  117.5845 estimate D2E/DX2         !
 ! A48   A(33,10,56)      118.1399  118.3482  118.432  estimate D2E/DX2         !
 ! A49   L(1,13,14,8,-1)  184.3226  178.4732  114.4759 estimate D2E/DX2         !
 ! A50   L(1,13,14,8,-2)  181.0249  176.4023   97.4245 estimate D2E/DX2         !
 ! A51   L(13,14,15,11,-1)  177.1913  181.2446  178.8604 estimate D2E/DX2       !
 ! A52   L(13,14,15,1,-1)  176.7576  180.6197  178.881 estimate D2E/DX2         !
 ! A53   L(13,14,15,1,-2)  282.4229  146.8789  180.2977 estimate D2E/DX2        !
 ! A54   L(13,14,15,11,-2)  172.0173  180.5748  179.8207 estimate D2E/DX2       !
 ! A55   A(14,15,16)      118.0979  119.4046  119.6363 estimate D2E/DX2         !
 ! A56   A(14,15,18)      121.01    119.1566  119.7583 estimate D2E/DX2         !
 ! A57   A(16,15,18)      120.8913  121.4361  120.604  estimate D2E/DX2         !
 ! A58   A(15,16,17)      119.2364  118.4733  119.3727 estimate D2E/DX2         !
 ! A59   A(15,16,19)      119.5928  119.0886  120.68   estimate D2E/DX2         !
 ! A60   A(17,16,19)      121.1708  122.4358  119.9467 estimate D2E/DX2         !
 ! A61   A(16,17,29)      119.6895  119.1134  119.4958 estimate D2E/DX2         !
 ! A62   A(16,17,57)      120.0699  120.5064  120.17   estimate D2E/DX2         !
 ! A63   A(29,17,57)      120.2406  120.3797  120.3343 estimate D2E/DX2         !
 ! A64   A(15,18,20)      119.9989  120.1924  119.8835 estimate D2E/DX2         !
 ! A65   A(15,18,58)      119.2153  119.1118  119.4005 estimate D2E/DX2         !
 ! A66   A(20,18,58)      120.7855  120.6957  120.7158 estimate D2E/DX2         !
 ! A67   A(2,19,4)         26.1669   25.4102   54.932  estimate D2E/DX2         !
 ! A68   A(2,19,16)        88.3875   85.9975  139.3717 estimate D2E/DX2         !
 ! A69   A(2,19,61)        47.1094   73.8212   60.7898 estimate D2E/DX2         !
 ! A70   A(3,19,4)         33.3602   31.7955   75.9049 estimate D2E/DX2         !
 ! A71   A(3,19,16)        81.4237   80.5315  123.756  estimate D2E/DX2         !
 ! A72   A(3,19,61)        55.7921   79.5398   75.4013 estimate D2E/DX2         !
 ! A73   A(4,19,16)        88.476    87.5767  125.3699 estimate D2E/DX2         !
 ! A74   A(4,19,61)        45.4086   73.5622   61.389  estimate D2E/DX2         !
 ! A75   A(16,19,61)      133.0629  159.7587  159.8335 estimate D2E/DX2         !
 ! A76   A(1,21,27)       121.5155  121.1357  122.3738 estimate D2E/DX2         !
 ! A77   A(1,21,54)       120.3689  121.4017  120.0115 estimate D2E/DX2         !
 ! A78   A(27,21,54)      117.4911  117.29    117.5726 estimate D2E/DX2         !
 ! A79   A(23,22,24)      121.0576  121.3841  121.1909 estimate D2E/DX2         !
 ! A80   A(23,22,27)      119.1024  119.1022  119.38   estimate D2E/DX2         !
 ! A81   A(24,22,27)      119.8195  119.4561  119.4219 estimate D2E/DX2         !
 ! A82   A(22,23,52)      118.8625  118.7222  118.5461 estimate D2E/DX2         !
 ! A83   A(22,23,53)      120.629   121.0462  120.9063 estimate D2E/DX2         !
 ! A84   A(52,23,53)      120.5084  120.2197  120.5423 estimate D2E/DX2         !
 ! A85   A(7,25,8)        122.7701  122.9654  122.6384 estimate D2E/DX2         !
 ! A86   A(7,25,26)       116.6168  116.8407  116.174  estimate D2E/DX2         !
 ! A87   A(8,25,26)       120.6011  120.1933  121.1831 estimate D2E/DX2         !
 ! A88   A(21,27,22)      122.7343  123.025   122.6384 estimate D2E/DX2         !
 ! A89   A(21,27,28)      116.607   116.834   116.121  estimate D2E/DX2         !
 ! A90   A(22,27,28)      120.6455  120.1405  121.236  estimate D2E/DX2         !
 ! A91   A(39,31,43)      102.0687  100.3365  100.9054 estimate D2E/DX2         !
 ! A92   A(38,32,44)      101.5543  101.1071  101.3948 estimate D2E/DX2         !
 ! A93   A(9,33,10)       117.1838  117.6245  117.8435 estimate D2E/DX2         !
 ! A94   A(9,33,34)       122.1654  122.7846  123.2681 estimate D2E/DX2         !
 ! A95   A(10,33,34)      120.5802  119.5903  118.87   estimate D2E/DX2         !
 ! A96   A(33,34,35)      117.9116  119.8336  120.6916 estimate D2E/DX2         !
 ! A97   A(33,34,39)      123.4693  121.0832  120.34   estimate D2E/DX2         !
 ! A98   A(35,34,39)      118.6131  119.0832  118.9645 estimate D2E/DX2         !
 ! A99   A(34,35,36)      121.5404  120.898   120.687  estimate D2E/DX2         !
 ! A100  A(34,35,40)      118.7153  118.8824  119.1002 estimate D2E/DX2         !
 ! A101  A(36,35,40)      119.7295  120.2044  120.2003 estimate D2E/DX2         !
 ! A102  A(35,36,37)      119.8116  119.9749  120.2851 estimate D2E/DX2         !
 ! A103  A(35,36,41)      120.1214  120.0822  119.9618 estimate D2E/DX2         !
 ! A104  A(37,36,41)      120.0629  119.9347  119.7431 estimate D2E/DX2         !
 ! A105  A(36,37,38)      119.6078  119.8888  119.7299 estimate D2E/DX2         !
 ! A106  A(36,37,42)      120.7108  120.7451  120.4273 estimate D2E/DX2         !
 ! A107  A(38,37,42)      119.6755  119.3622  119.84   estimate D2E/DX2         !
 ! A108  A(32,38,37)      118.0652  118.8429  119.1944 estimate D2E/DX2         !
 ! A109  A(32,38,39)      120.8293  120.7119  120.6208 estimate D2E/DX2         !
 ! A110  A(37,38,39)      121.0012  120.3714  120.1387 estimate D2E/DX2         !
 ! A111  A(31,39,34)      121.2201  119.4307  119.941  estimate D2E/DX2         !
 ! A112  A(31,39,38)      119.2048  120.739   119.8422 estimate D2E/DX2         !
 ! A113  A(34,39,38)      119.3735  119.7069  120.1244 estimate D2E/DX2         !
 ! A114  A(31,43,44)      119.1632  120.7544  119.6704 estimate D2E/DX2         !
 ! A115  A(31,43,48)      121.2912  119.4211  120.0931 estimate D2E/DX2         !
 ! A116  A(44,43,48)      119.3904  119.7113  120.1358 estimate D2E/DX2         !
 ! A117  A(32,44,43)      120.8746  120.7078  120.7731 estimate D2E/DX2         !
 ! A118  A(32,44,45)      118.0483  118.8726  119.0046 estimate D2E/DX2         !
 ! A119  A(43,44,45)      120.9745  120.355   120.1794 estimate D2E/DX2         !
 ! A120  A(44,45,46)      119.6257  119.8989  119.7216 estimate D2E/DX2         !
 ! A121  A(44,45,49)      119.673   119.3374  119.7278 estimate D2E/DX2         !
 ! A122  A(46,45,49)      120.6972  120.7606  120.5485 estimate D2E/DX2         !
 ! A123  A(45,46,47)      119.805   119.9832  120.2542 estimate D2E/DX2         !
 ! A124  A(45,46,50)      120.0755  119.927   119.7199 estimate D2E/DX2         !
 ! A125  A(47,46,50)      120.1164  120.0814  120.0134 estimate D2E/DX2         !
 ! A126  A(46,47,48)      121.534   120.8702  120.7756 estimate D2E/DX2         !
 ! A127  A(46,47,51)      119.7295  120.2409  120.1137 estimate D2E/DX2         !
 ! A128  A(48,47,51)      118.7188  118.8708  119.0966 estimate D2E/DX2         !
 ! A129  A(43,48,47)      118.6193  119.1089  118.8443 estimate D2E/DX2         !
 ! A130  A(43,48,52)      123.5445  121.1642  120.6785 estimate D2E/DX2         !
 ! A131  A(47,48,52)      117.8338  119.7269  120.4734 estimate D2E/DX2         !
 ! A132  A(23,52,48)      122.2778  122.698   123.2561 estimate D2E/DX2         !
 ! A133  A(23,52,54)      117.1493  117.6564  117.773  estimate D2E/DX2         !
 ! A134  A(48,52,54)      120.4947  119.6445  118.9649 estimate D2E/DX2         !
 ! A135  A(21,54,52)      124.5318  124.1527  124.0307 estimate D2E/DX2         !
 ! A136  A(21,54,55)      117.3659  117.4482  117.6525 estimate D2E/DX2         !
 ! A137  A(52,54,55)      118.1022  118.3966  118.3165 estimate D2E/DX2         !
 ! A138  A(17,57,58)      120.474   120.5817  120.321  estimate D2E/DX2         !
 ! A139  A(17,57,60)      119.7599  119.8524  119.8554 estimate D2E/DX2         !
 ! A140  A(58,57,60)      119.7661  119.5656  119.8236 estimate D2E/DX2         !
 ! A141  A(18,58,57)      120.113   119.8906  120.1318 estimate D2E/DX2         !
 ! A142  A(18,58,59)      119.7175  119.9237  119.6694 estimate D2E/DX2         !
 ! A143  A(57,58,59)      120.1694  120.1853  120.1987 estimate D2E/DX2         !
 ! A144  A(1,61,19)       106.0401   88.9768   79.5959 estimate D2E/DX2         !
 ! D1    D(4,1,2,19)       99.1865  110.6478   32.7909 estimate D2E/DX2         !
 ! D2    D(6,1,2,19)     -174.3346 -158.6084  122.4298 estimate D2E/DX2         !
 ! D3    D(61,1,2,19)     -32.7456  -26.4819  -50.7312 estimate D2E/DX2         !
 ! D4    D(2,1,4,19)      -94.0165 -110.8966  -32.2576 estimate D2E/DX2         !
 ! D5    D(6,1,4,19)      179.7302  158.2846 -122.1815 estimate D2E/DX2         !
 ! D6    D(7,1,4,19)       95.8124   66.8792  143.2308 estimate D2E/DX2         !
 ! D7    D(61,1,4,19)      37.5955   26.7944   49.8035 estimate D2E/DX2         !
 ! D8    D(4,1,7,10)      131.0024  121.4907  111.5057 estimate D2E/DX2         !
 ! D9    D(4,1,7,25)      -57.7037  -62.4309  -72.1415 estimate D2E/DX2         !
 ! D10   D(6,1,7,10)       43.57     30.8151   21.951  estimate D2E/DX2         !
 ! D11   D(6,1,7,25)     -145.136  -153.1065 -161.6962 estimate D2E/DX2         !
 ! D12   D(13,1,7,10)    -153.614  -147.3349   76.8517 estimate D2E/DX2         !
 ! D13   D(13,1,7,25)      17.6799   28.7435 -106.7954 estimate D2E/DX2         !
 ! D14   D(21,1,7,10)     -37.2659  -60.7605  -71.0552 estimate D2E/DX2         !
 ! D15   D(21,1,7,25)     134.0281  115.3179  105.2977 estimate D2E/DX2         !
 ! D16   D(61,1,7,10)     -98.0442 -100.9399 -164.2027 estimate D2E/DX2         !
 ! D17   D(61,1,7,25)      73.2498   75.1386   12.1502 estimate D2E/DX2         !
 ! D18   D(2,1,15,16)    -129.7378 -135.8922  -90.2507 estimate D2E/DX2         !
 ! D19   D(2,1,15,18)      47.7412   42.4023  142.5447 estimate D2E/DX2         !
 ! D20   D(4,1,15,16)     137.864   131.1855   95.3182 estimate D2E/DX2         !
 ! D21   D(4,1,15,18)     -44.6569  -50.52    -31.8864 estimate D2E/DX2         !
 ! D22   D(7,1,15,16)      60.5163   42.5236   83.0832 estimate D2E/DX2         !
 ! D23   D(7,1,15,18)    -122.0047 -139.1819  -44.1214 estimate D2E/DX2         !
 ! D24   D(21,1,15,16)    -52.8442  -46.7967  -79.2533 estimate D2E/DX2         !
 ! D25   D(21,1,15,18)    124.6349  131.4977  153.5421 estimate D2E/DX2         !
 ! D26   D(2,1,21,27)      57.5119   63.1439   67.7297 estimate D2E/DX2         !
 ! D27   D(2,1,21,54)    -131.7756 -121.7611 -114.6885 estimate D2E/DX2         !
 ! D28   D(6,1,21,27)     144.8107  153.9051  157.6878 estimate D2E/DX2         !
 ! D29   D(6,1,21,54)     -44.4768  -31.0     -24.7304 estimate D2E/DX2         !
 ! D30   D(7,1,21,27)    -133.8881 -114.703  -108.005  estimate D2E/DX2         !
 ! D31   D(7,1,21,54)      36.8244   60.3919   69.5768 estimate D2E/DX2         !
 ! D32   D(13,1,21,27)    -17.1865  -27.5462  103.0045 estimate D2E/DX2         !
 ! D33   D(13,1,21,54)    153.5261  147.5487  -79.4138 estimate D2E/DX2         !
 ! D34   D(2,1,61,19)      53.2165   61.5143   48.3461 estimate D2E/DX2         !
 ! D35   D(4,1,61,19)     -63.3718  -62.8742  -48.4197 estimate D2E/DX2         !
 ! D36   D(7,1,61,19)    -127.248  -117.8821 -136.9762 estimate D2E/DX2         !
 ! D37   D(19,2,7,10)    -132.6507 -127.365   146.7512 estimate D2E/DX2         !
 ! D38   D(19,2,7,25)      45.4057   47.2907  -40.2483 estimate D2E/DX2         !
 ! D39   D(1,2,19,4)      -44.9204  -41.4278  -23.9479 estimate D2E/DX2         !
 ! D40   D(1,2,19,16)    -134.7463 -134.2083 -129.4898 estimate D2E/DX2         !
 ! D41   D(1,2,19,61)      28.6841   44.2172   49.922  estimate D2E/DX2         !
 ! D42   D(1,4,19,2)       47.0905   41.2709   23.9132 estimate D2E/DX2         !
 ! D43   D(1,4,19,3)       59.884    51.1794   31.9955 estimate D2E/DX2         !
 ! D44   D(1,4,19,16)     136.5354  127.0428  153.6191 estimate D2E/DX2         !
 ! D45   D(1,4,19,61)     -33.6549  -45.5203  -48.8524 estimate D2E/DX2         !
 ! D46   D(5,4,19,2)     -130.4049 -139.2488 -158.4972 estimate D2E/DX2         !
 ! D47   D(5,4,19,3)     -117.6113 -129.3403 -150.4148 estimate D2E/DX2         !
 ! D48   D(5,4,19,16)     -40.9599  -53.4768  -28.7913 estimate D2E/DX2         !
 ! D49   D(5,4,19,61)     148.8498  133.9601  128.7373 estimate D2E/DX2         !
 ! D50   D(1,7,10,33)     167.7724  174.5001  173.5332 estimate D2E/DX2         !
 ! D51   D(1,7,10,56)     -12.1783   -6.0557   -6.1013 estimate D2E/DX2         !
 ! D52   D(25,7,10,33)     -3.8155   -1.7094   -3.0045 estimate D2E/DX2         !
 ! D53   D(25,7,10,56)    176.2338  177.7347  177.361  estimate D2E/DX2         !
 ! D54   D(1,7,25,8)     -171.0971 -176.4744 -175.843  estimate D2E/DX2         !
 ! D55   D(1,7,25,26)       7.6446    3.2486    3.3981 estimate D2E/DX2         !
 ! D56   D(10,7,25,8)       0.4896   -0.2298    0.5813 estimate D2E/DX2         !
 ! D57   D(10,7,25,26)    179.2313  179.4932  179.8224 estimate D2E/DX2         !
 ! D58   D(11,8,9,12)      -0.9433    0.0707   -0.9074 estimate D2E/DX2         !
 ! D59   D(11,8,9,33)     179.1595 -178.5786  179.8938 estimate D2E/DX2         !
 ! D60   D(25,8,9,12)     177.4452  177.333   177.9033 estimate D2E/DX2         !
 ! D61   D(25,8,9,33)      -2.452    -1.3164   -1.2955 estimate D2E/DX2         !
 ! D62   D(9,8,25,7)        2.5847    1.7272    1.5285 estimate D2E/DX2         !
 ! D63   D(9,8,25,26)    -176.1083 -177.9868 -177.6753 estimate D2E/DX2         !
 ! D64   D(11,8,25,7)    -179.0056  179.0429 -179.6396 estimate D2E/DX2         !
 ! D65   D(11,8,25,26)      2.3014   -0.6711    1.1566 estimate D2E/DX2         !
 ! D66   D(8,9,33,10)      -0.5185   -0.4347   -0.8906 estimate D2E/DX2         !
 ! D67   D(8,9,33,34)    -177.4782  179.8472  177.5264 estimate D2E/DX2         !
 ! D68   D(12,9,33,10)    179.5843 -179.0928  179.9062 estimate D2E/DX2         !
 ! D69   D(12,9,33,34)      2.6246    1.189    -1.6769 estimate D2E/DX2         !
 ! D70   D(7,10,33,9)       3.8354    2.0451    3.1802 estimate D2E/DX2         !
 ! D71   D(7,10,33,34)   -179.154  -178.2274 -175.3084 estimate D2E/DX2         !
 ! D72   D(56,10,33,9)   -176.2142 -177.3946 -177.1881 estimate D2E/DX2         !
 ! D73   D(56,10,33,34)     0.7964    2.3329    4.3233 estimate D2E/DX2         !
 ! D74   D(14,15,16,17)   179.5789  179.4624 -179.5625 estimate D2E/DX2         !
 ! D75   D(14,15,16,19)    -0.4282    0.0004    0.1615 estimate D2E/DX2         !
 ! D76   D(18,15,16,17)    -0.0795    0.0621    0.0129 estimate D2E/DX2         !
 ! D77   D(18,15,16,19)   179.9134 -179.3999  179.7369 estimate D2E/DX2         !
 ! D78   D(14,15,18,20)     0.2876    0.4348   -0.2752 estimate D2E/DX2         !
 ! D79   D(14,15,18,58)  -179.5239 -179.3936  179.5764 estimate D2E/DX2         !
 ! D80   D(16,15,18,20)   179.9361  179.8366 -179.85   estimate D2E/DX2         !
 ! D81   D(16,15,18,58)     0.1245    0.0082    0.0015 estimate D2E/DX2         !
 ! D82   D(15,16,17,29)   179.9773 -179.8449  179.9738 estimate D2E/DX2         !
 ! D83   D(15,16,17,57)     0.0079   -0.1209   -0.0115 estimate D2E/DX2         !
 ! D84   D(19,16,17,29)    -0.0155   -0.402     0.2478 estimate D2E/DX2         !
 ! D85   D(19,16,17,57)  -179.9849  179.3221 -179.7376 estimate D2E/DX2         !
 ! D86   D(15,16,19,2)     15.6897   12.8829   26.4476 estimate D2E/DX2         !
 ! D87   D(15,16,19,3)     22.2712   18.678    47.8185 estimate D2E/DX2         !
 ! D88   D(15,16,19,4)    -10.487   -12.5196  -48.7975 estimate D2E/DX2         !
 ! D89   D(15,16,19,61)    -0.9277    8.5084 -152.0629 estimate D2E/DX2         !
 ! D90   D(17,16,19,2)   -164.3175 -166.5567 -153.8299 estimate D2E/DX2         !
 ! D91   D(17,16,19,3)   -157.7361 -160.7617 -132.4591 estimate D2E/DX2         !
 ! D92   D(17,16,19,4)    169.5058  168.0408  130.9249 estimate D2E/DX2         !
 ! D93   D(17,16,19,61)   179.065  -170.9312   27.6595 estimate D2E/DX2         !
 ! D94   D(16,17,57,58)     0.0176    0.1111   -0.0043 estimate D2E/DX2         !
 ! D95   D(16,17,57,60)  -179.9931 -179.7042  179.9354 estimate D2E/DX2         !
 ! D96   D(29,17,57,58)  -179.9516  179.8316 -179.9895 estimate D2E/DX2         !
 ! D97   D(29,17,57,60)     0.0377    0.0163   -0.0498 estimate D2E/DX2         !
 ! D98   D(15,18,58,57)    -0.0979   -0.0204   -0.0174 estimate D2E/DX2         !
 ! D99   D(15,18,58,59)   179.7815  179.7768 -179.9059 estimate D2E/DX2         !
 ! D100  D(20,18,58,57)  -179.908  -179.8479  179.8329 estimate D2E/DX2         !
 ! D101  D(20,18,58,59)    -0.0285   -0.0507   -0.0556 estimate D2E/DX2         !
 ! D102  D(2,19,61,1)     -17.2132  -13.0715  -32.0536 estimate D2E/DX2         !
 ! D103  D(3,19,61,1)     -22.3469  -18.7282  -50.1529 estimate D2E/DX2         !
 ! D104  D(4,19,61,1)      19.233    13.4216   31.5335 estimate D2E/DX2         !
 ! D105  D(16,19,61,1)      5.7524   -8.5273  146.8353 estimate D2E/DX2         !
 ! D106  D(1,21,27,22)    170.4827  175.0066  177.3709 estimate D2E/DX2         !
 ! D107  D(1,21,27,28)     -8.2007   -4.722    -1.8556 estimate D2E/DX2         !
 ! D108  D(54,21,27,22)    -0.4863   -0.2829   -0.2668 estimate D2E/DX2         !
 ! D109  D(54,21,27,28)  -179.1698  179.9885 -179.4932 estimate D2E/DX2         !
 ! D110  D(1,21,54,52)   -167.5791 -173.1114 -175.314  estimate D2E/DX2         !
 ! D111  D(1,21,54,55)     12.3597    7.4641    4.4998 estimate D2E/DX2         !
 ! D112  D(27,21,54,52)     3.4985    2.1648    2.382  estimate D2E/DX2         !
 ! D113  D(27,21,54,55)  -176.5627 -177.2598 -177.8042 estimate D2E/DX2         !
 ! D114  D(24,22,23,52)  -179.3307  178.7945  179.9172 estimate D2E/DX2         !
 ! D115  D(24,22,23,53)     0.7639    0.0445    0.7473 estimate D2E/DX2         !
 ! D116  D(27,22,23,52)     2.3206    1.5704    0.8952 estimate D2E/DX2         !
 ! D117  D(27,22,23,53)  -177.5847 -177.1796 -178.2747 estimate D2E/DX2         !
 ! D118  D(23,22,27,21)    -2.3669   -1.5603   -1.3392 estimate D2E/DX2         !
 ! D119  D(23,22,27,28)   176.2649  178.1596  177.8484 estimate D2E/DX2         !
 ! D120  D(24,22,27,21)   179.2636 -178.8388  179.6213 estimate D2E/DX2         !
 ! D121  D(24,22,27,28)    -2.1046    0.8812   -1.1911 estimate D2E/DX2         !
 ! D122  D(22,23,52,48)   177.1648  179.7525 -178.0841 estimate D2E/DX2         !
 ! D123  D(22,23,52,54)     0.3676    0.1269    1.0105 estimate D2E/DX2         !
 ! D124  D(53,23,52,48)    -2.9297   -1.4869    1.0889 estimate D2E/DX2         !
 ! D125  D(53,23,52,54)  -179.7269  178.8876 -179.8165 estimate D2E/DX2         !
 ! D126  D(43,31,39,34)  -140.2346 -139.0567 -137.1711 estimate D2E/DX2         !
 ! D127  D(43,31,39,38)    44.9575   44.9935   46.3193 estimate D2E/DX2         !
 ! D128  D(39,31,43,44)   -44.4192  -44.9817  -46.6337 estimate D2E/DX2         !
 ! D129  D(39,31,43,48)   140.1368  138.8968  137.0095 estimate D2E/DX2         !
 ! D130  D(44,32,38,37)   139.2912  139.8308  139.1077 estimate D2E/DX2         !
 ! D131  D(44,32,38,39)   -44.3855  -43.2806  -43.3572 estimate D2E/DX2         !
 ! D132  D(38,32,44,43)    44.9418   43.2989   43.0284 estimate D2E/DX2         !
 ! D133  D(38,32,44,45)  -138.7058 -139.6118 -139.3508 estimate D2E/DX2         !
 ! D134  D(9,33,34,35)     50.7702   64.7811   73.7459 estimate D2E/DX2         !
 ! D135  D(9,33,34,39)   -128.3254 -115.1646 -106.979  estimate D2E/DX2         !
 ! D136  D(10,33,34,35)  -126.0883 -114.9318 -107.8526 estimate D2E/DX2         !
 ! D137  D(10,33,34,39)    54.8161   65.1226   71.4226 estimate D2E/DX2         !
 ! D138  D(33,34,35,36)   179.1776  177.8882  177.25   estimate D2E/DX2         !
 ! D139  D(33,34,35,40)     0.5823   -0.6924   -1.4718 estimate D2E/DX2         !
 ! D140  D(39,34,35,36)    -1.6818   -2.165    -2.0351 estimate D2E/DX2         !
 ! D141  D(39,34,35,40)   179.7229  179.2543  179.2432 estimate D2E/DX2         !
 ! D142  D(33,34,39,31)     5.3479    6.2923    6.606  estimate D2E/DX2         !
 ! D143  D(33,34,39,38)  -179.8528 -177.7155 -176.8943 estimate D2E/DX2         !
 ! D144  D(35,34,39,31)  -173.7418 -173.6538 -174.1064 estimate D2E/DX2         !
 ! D145  D(35,34,39,38)     1.0575    2.3384    2.3933 estimate D2E/DX2         !
 ! D146  D(34,35,36,37)     0.2492   -0.1671   -0.2681 estimate D2E/DX2         !
 ! D147  D(34,35,36,41)  -179.0118 -179.1294 -179.112  estimate D2E/DX2         !
 ! D148  D(40,35,36,37)   178.8305  178.3949  178.4396 estimate D2E/DX2         !
 ! D149  D(40,35,36,41)    -0.4305   -0.5674   -0.4043 estimate D2E/DX2         !
 ! D150  D(35,36,37,38)     1.8067    2.3274    2.2254 estimate D2E/DX2         !
 ! D151  D(35,36,37,42)  -179.0766 -178.397  -178.3889 estimate D2E/DX2         !
 ! D152  D(41,36,37,38)  -178.9319 -178.7088 -178.9281 estimate D2E/DX2         !
 ! D153  D(41,36,37,42)     0.1848    0.5669    0.4576 estimate D2E/DX2         !
 ! D154  D(36,37,38,32)   173.8884  174.7643  175.6959 estimate D2E/DX2         !
 ! D155  D(36,37,38,39)    -2.4283   -2.1352   -1.8514 estimate D2E/DX2         !
 ! D156  D(42,37,38,32)    -5.2376   -4.5214   -3.6934 estimate D2E/DX2         !
 ! D157  D(42,37,38,39)   178.4457  178.5791  178.7593 estimate D2E/DX2         !
 ! D158  D(32,38,39,31)    -0.3335   -1.116    -1.4768 estimate D2E/DX2         !
 ! D159  D(32,38,39,34)  -175.2386 -177.0548 -177.9799 estimate D2E/DX2         !
 ! D160  D(37,38,39,31)   175.8813  175.725   176.0351 estimate D2E/DX2         !
 ! D161  D(37,38,39,34)     0.9763   -0.2137   -0.468  estimate D2E/DX2         !
 ! D162  D(31,43,44,32)    -0.622     1.0805    2.1284 estimate D2E/DX2         !
 ! D163  D(31,43,44,45)  -176.8672 -175.9657 -175.4646 estimate D2E/DX2         !
 ! D164  D(48,43,44,32)   174.9098  177.1908  178.4836 estimate D2E/DX2         !
 ! D165  D(48,43,44,45)    -1.3355    0.1446    0.8906 estimate D2E/DX2         !
 ! D166  D(31,43,48,47)   174.7124  173.8927  173.4632 estimate D2E/DX2         !
 ! D167  D(31,43,48,52)    -4.7157   -6.0815   -7.2456 estimate D2E/DX2         !
 ! D168  D(44,43,48,47)    -0.7214   -2.2698   -2.8765 estimate D2E/DX2         !
 ! D169  D(44,43,48,52)   179.8505  177.756   176.4148 estimate D2E/DX2         !
 ! D170  D(32,44,45,46)  -173.8615 -175.0175 -175.84   estimate D2E/DX2         !
 ! D171  D(32,44,45,49)     5.406     4.3529    3.6399 estimate D2E/DX2         !
 ! D172  D(43,44,45,46)     2.4871    2.0824    1.7953 estimate D2E/DX2         !
 ! D173  D(43,44,45,49)  -178.2454 -178.5472 -178.7248 estimate D2E/DX2         !
 ! D174  D(44,45,46,47)    -1.5464   -2.1532   -2.4644 estimate D2E/DX2         !
 ! D175  D(44,45,46,50)   179.0967  178.9015  178.8206 estimate D2E/DX2         !
 ! D176  D(49,45,46,47)   179.1937  178.4855  178.06   estimate D2E/DX2         !
 ! D177  D(49,45,46,50)    -0.1632   -0.4598   -0.6549 estimate D2E/DX2         !
 ! D178  D(45,46,47,48)    -0.5303   -0.0079    0.4379 estimate D2E/DX2         !
 ! D179  D(45,46,47,51)  -178.9775 -178.44   -178.1852 estimate D2E/DX2         !
 ! D180  D(50,46,47,48)   178.8264  178.9358  179.1491 estimate D2E/DX2         !
 ! D181  D(50,46,47,51)     0.3791    0.5037    0.526  estimate D2E/DX2         !
 ! D182  D(46,47,48,43)     1.6611    2.2178    2.2254 estimate D2E/DX2         !
 ! D183  D(46,47,48,52)  -178.8778 -177.8077 -177.0673 estimate D2E/DX2         !
 ! D184  D(51,47,48,43)  -179.8764 -179.329  -179.1377 estimate D2E/DX2         !
 ! D185  D(51,47,48,52)    -0.4153    0.6455    1.5695 estimate D2E/DX2         !
 ! D186  D(43,48,52,23)   127.817   114.4545  110.7417 estimate D2E/DX2         !
 ! D187  D(43,48,52,54)   -55.4906  -65.9271  -68.3427 estimate D2E/DX2         !
 ! D188  D(47,48,52,23)   -51.6154  -65.5195  -69.9786 estimate D2E/DX2         !
 ! D189  D(47,48,52,54)   125.077   114.0989  110.937  estimate D2E/DX2         !
 ! D190  D(23,52,54,21)    -3.4429   -2.0961   -2.7708 estimate D2E/DX2         !
 ! D191  D(23,52,54,55)   176.6187  177.3234  177.4165 estimate D2E/DX2         !
 ! D192  D(48,52,54,21)   179.6996  178.2665  176.3638 estimate D2E/DX2         !
 ! D193  D(48,52,54,55)    -0.2388   -2.3141   -3.4488 estimate D2E/DX2         !
 ! D194  D(17,57,58,18)     0.0281   -0.0385    0.0189 estimate D2E/DX2         !
 ! D195  D(17,57,58,59)  -179.8508 -179.8351  179.9068 estimate D2E/DX2         !
 ! D196  D(60,57,58,18)  -179.9612  179.7773 -179.9208 estimate D2E/DX2         !
 ! D197  D(60,57,58,59)     0.1599   -0.0193   -0.0329 estimate D2E/DX2         !
 --------------------------------------------------------------------------------
 Trust Radius=3.00D-01 FncErr=1.00D-07 GrdErr=1.00D-06 EigMax=2.50D+02 EigMin=1.00D-04
 Number of steps in this run=    366 maximum allowed number of steps=    366.
 Search for a saddle point of order  1.
 GradGradGradGradGradGradGradGradGradGradGradGradGradGradGradGradGradGrad

 Stoichiometry    C32H19BrMnN3O3S2
 Framework group  C1[X(C32H19BrMnN3O3S2)]
 Deg. of freedom   177
 Full point group                 C1      NOp   1
 Largest Abelian subgroup         C1      NOp   1
 Largest concise Abelian subgroup C1      NOp   1
                         Standard orientation:                         
 ---------------------------------------------------------------------
 Center     Atomic      Atomic             Coordinates (Angstroms)
 Number     Number       Type             X           Y           Z
 ---------------------------------------------------------------------
      1         25           0        1.597688   -0.114110    1.351456
      2          6           0        2.460675    1.128545    2.365072
      3          8           0        2.982500    1.872879    3.061943
      4          6           0        2.383776   -1.454238    2.302753
      5          8           0        2.855986   -2.262604    2.962741
      6          6           0        0.321339   -0.102027    2.634001
      7          7           0        0.438834   -1.792745    0.564436
      8          6           0        0.344156   -3.821246   -0.704288
      9          6           0       -1.041101   -3.720635   -0.808277
     10          6           0       -0.890518   -1.741987    0.510229
     11          1           0        0.884950   -4.651569   -1.161633
     12          1           0       -1.612569   -4.467448   -1.365805
     13          7           0        3.617942   -0.133358    0.446560
     14          6           0        4.693891   -0.079454    0.032104
     15          6           0        5.956144    0.015609   -0.648234
     16          6           0        5.945188    0.173151   -2.042362
     17          6           0        7.153269    0.276544   -2.723845
     18          6           0        7.164115   -0.039974    0.060107
     19          1           0        4.990919    0.212405   -2.573572
     20          1           0        7.155618   -0.161890    1.145298
     21          7           0        0.530522    1.674371    0.657234
     22          6           0        0.527123    3.765223   -0.508742
     23          6           0       -0.861481    3.732229   -0.615116
     24          1           0        1.104412    4.591329   -0.927492
     25          6           0        1.043670   -2.828103   -0.035130
     26          1           0        2.135405   -2.848647    0.007002
     27          6           0        1.181541    2.710734    0.110870
     28          1           0        2.273238    2.681027    0.154509
     29          1           0        7.153384    0.399017   -3.809321
     30          8           0       -0.364224   -0.090513    3.556086
     31         16           0       -2.921094    0.067106   -1.279427
     32         16           0       -6.101567    0.144726   -1.210181
     33          6           0       -1.687300   -2.648840   -0.190368
     34          6           0       -3.171101   -2.499315   -0.207992
     35          6           0       -3.945997   -3.599893    0.181969
     36          6           0       -5.335413   -3.538240    0.209974
     37          6           0       -5.982731   -2.364975   -0.160005
     38          6           0       -5.232167   -1.270046   -0.593087
     39          6           0       -3.830178   -1.317538   -0.613184
     40          1           0       -3.437866   -4.516562    0.491385
     41          1           0       -5.916168   -4.405049    0.533244
     42          1           0       -7.072869   -2.295446   -0.129136
     43          6           0       -3.760195    1.456778   -0.536517
     44          6           0       -5.162584    1.472615   -0.507426
     45          6           0       -5.858484    2.569388    0.005468
     46          6           0       -5.155130    3.684093    0.447104
     47          6           0       -3.764605    3.685747    0.404840
     48          6           0       -3.044382    2.579510   -0.065273
     49          1           0       -6.950337    2.547259    0.044320
     50          1           0       -5.692730    4.551950    0.835956
     51          1           0       -3.212428    4.556087    0.767914
     52          6           0       -1.555193    2.660691   -0.050507
     53          1           0       -1.399570    4.530631   -1.133104
     54          6           0       -0.799361    1.684292    0.598863
     55          1           0       -1.327882    0.871302    1.092994
     56          1           0       -1.383768   -0.935680    1.050416
     57          6           0        8.359157    0.223173   -2.022089
     58          6           0        8.364717    0.065804   -0.635309
     59          1           0        9.311117    0.027117   -0.090929
     60          1           0        9.305546    0.305049   -2.562703
     61         35           0        1.522336   -0.030546   -1.480555
 ---------------------------------------------------------------------
 Rotational constants (GHZ):           0.1273384           0.0438340           0.0396738
 General basis read from cards:  (5D, 7F)
 There are   800 symmetry adapted cartesian basis functions of A   symmetry.
 There are   749 symmetry adapted basis functions of A   symmetry.
   749 basis functions,  1349 primitive gaussians,   800 cartesian basis functions
   174 alpha electrons      174 beta electrons
       nuclear repulsion energy      6687.9351967316 Hartrees.
 NAtoms=   61 NActive=   61 NUniq=   61 SFac= 1.00D+00 NAtFMM=   60 NAOKFM=T Big=T
 Integral buffers will be    131072 words long.
 Raffenetti 2 integral format.
 Two-electron integral symmetry is turned on.
 Nuclear repulsion after empirical dispersion term =     6687.8738071490 Hartrees.
 ------------------------------------------------------------------------------
 Polarizable Continuum Model (PCM)
 =================================
 Model                : PCM.
 Atomic radii         : UFF (Universal Force Field).
 Polarization charges : Total charges.
 Charge compensation  : None.
 Solution method      : On-the-fly selection.
 Cavity type          : Scaled VdW (van der Waals Surface) (Alpha=1.100).
 Cavity algorithm     : GePol (No added spheres)
                        Default sphere list used, NSphG=   61.
                        Lebedev-Laikov grids with approx.  5.0 points / Ang**2.
                        Smoothing algorithm: York/Karplus (Gamma=1.0000).
                        Polarization charges: spherical gaussians, with
                                              point-specific exponents (IZeta= 3).
                        Self-potential: point-specific (ISelfS= 7).
                        Self-field    : sphere-specific E.n sum rule (ISelfD= 2).
 1st derivatives      : Analytical E(r).r(x)/FMM algorithm (CHGder, D1EAlg=3).
                        Cavity 1st derivative terms included.
 Solvent              : TetraHydroFuran, Eps=   7.425700 Eps(inf)=   1.974025
 ------------------------------------------------------------------------------
 One-electron integrals computed using PRISM.
 PrsmSu:  requested number of processors reduced to:  11 ShMem   1 Linda.
 NBasis=   749 RedAO= T EigKep=  2.29D-04  NBF=   749
 NBsUse=   749 1.00D-06 EigRej= -1.00D+00 NBFU=   749
 ExpMin= 3.93D-02 ExpMax= 2.77D+05 ExpMxC= 1.70D+04 IAcc=3 IRadAn=         5 AccDes= 0.00D+00
 Harris functional with IExCor= 4639 and IRadAn=       5 diagonalized for initial guess.
 HarFok:  IExCor= 4639 AccDes= 0.00D+00 IRadAn=         5 IDoV= 1 UseB2=F ITyADJ=14
 ICtDFT=  3500011 ScaDFX=  1.000000  1.000000  1.000000  1.000000
 FoFCou: FMM=F IPFlag=           0 FMFlag=      100000 FMFlg1=        2001
         NFxFlg=           0 DoJE=T BraDBF=F KetDBF=T FulRan=T
         wScrn=  0.000000 ICntrl=       500 IOpCl=  0 I1Cent=   200000004 NGrid=           0
         NMat0=    1 NMatS0=      1 NMatT0=    0 NMatD0=    1 NMtDS0=    0 NMtDT0=    0
 Petite list used in FoFCou.
 Requested convergence on RMS density matrix=1.00D-08 within 128 cycles.
 Requested convergence on MAX density matrix=1.00D-06.
 Requested convergence on             energy=1.00D-06.
 No special actions if energy rises.
 CoulSu:  requested number of processors reduced to:   9 ShMem   1 Linda.
 Inv3:  Mode=1 IEnd=    69350592.
 Iteration    1 A*A^-1 deviation from unit magnitude is 3.33D-15 for   4593.
 Iteration    1 A*A^-1 deviation from orthogonality  is 2.22D-15 for   3258    219.
 Iteration    1 A^-1*A deviation from unit magnitude is 3.55D-15 for   4593.
 Iteration    1 A^-1*A deviation from orthogonality  is 2.78D-15 for   3864   2358.
 CoulSu:  requested number of processors reduced to:   9 ShMem   1 Linda.
 CoulSu:  requested number of processors reduced to:   9 ShMem   1 Linda.
 Error on total polarization charges =  0.01539
 SCF Done:  E(RwB97XD) =  -6140.18001388     A.U. after   19 cycles
            NFock= 19  Conv=0.91D-08     -V/T= 2.0037

 **********************************************************************

            Population analysis using the SCF density.

 **********************************************************************

 Orbital symmetries:
       Occupied  (A) (A) (A) (A) (A) (A) (A) (A) (A) (A) (A) (A)
                 (A) (A) (A) (A) (A) (A) (A) (A) (A) (A) (A) (A)
                 (A) (A) (A) (A) (A) (A) (A) (A) (A) (A) (A) (A)
                 (A) (A) (A) (A) (A) (A) (A) (A) (A) (A) (A) (A)
                 (A) (A) (A) (A) (A) (A) (A) (A) (A) (A) (A) (A)
                 (A) (A) (A) (A) (A) (A) (A) (A) (A) (A) (A) (A)
                 (A) (A) (A) (A) (A) (A) (A) (A) (A) (A) (A) (A)
                 (A) (A) (A) (A) (A) (A) (A) (A) (A) (A) (A) (A)
                 (A) (A) (A) (A) (A) (A) (A) (A) (A) (A) (A) (A)
                 (A) (A) (A) (A) (A) (A) (A) (A) (A) (A) (A) (A)
                 (A) (A) (A) (A) (A) (A) (A) (A) (A) (A) (A) (A)
                 (A) (A) (A) (A) (A) (A) (A) (A) (A) (A) (A) (A)
                 (A) (A) (A) (A) (A) (A) (A) (A) (A) (A) (A) (A)
                 (A) (A) (A) (A) (A) (A) (A) (A) (A) (A) (A) (A)
                 (A) (A) (A) (A) (A) (A)
       Virtual   (A) (A) (A) (A) (A) (A) (A) (A) (A) (A) (A) (A)
                 (A) (A) (A) (A) (A) (A) (A) (A) (A) (A) (A) (A)
                 (A) (A) (A) (A) (A) (A) (A) (A) (A) (A) (A) (A)
                 (A) (A) (A) (A) (A) (A) (A) (A) (A) (A) (A) (A)
                 (A) (A) (A) (A) (A) (A) (A) (A) (A) (A) (A) (A)
                 (A) (A) (A) (A) (A) (A) (A) (A) (A) (A) (A) (A)
                 (A) (A) (A) (A) (A) (A) (A) (A) (A) (A) (A) (A)
                 (A) (A) (A) (A) (A) (A) (A) (A) (A) (A) (A) (A)
                 (A) (A) (A) (A) (A) (A) (A) (A) (A) (A) (A) (A)
                 (A) (A) (A) (A) (A) (A) (A) (A) (A) (A) (A) (A)
                 (A) (A) (A) (A) (A) (A) (A) (A) (A) (A) (A) (A)
                 (A) (A) (A) (A) (A) (A) (A) (A) (A) (A) (A) (A)
                 (A) (A) (A) (A) (A) (A) (A) (A) (A) (A) (A) (A)
                 (A) (A) (A) (A) (A) (A) (A) (A) (A) (A) (A) (A)
                 (A) (A) (A) (A) (A) (A) (A) (A) (A) (A) (A) (A)
                 (A) (A) (A) (A) (A) (A) (A) (A) (A) (A) (A) (A)
                 (A) (A) (A) (A) (A) (A) (A) (A) (A) (A) (A) (A)
                 (A) (A) (A) (A) (A) (A) (A) (A) (A) (A) (A) (A)
                 (A) (A) (A) (A) (A) (A) (A) (A) (A) (A) (A) (A)
                 (A) (A) (A) (A) (A) (A) (A) (A) (A) (A) (A) (A)
                 (A) (A) (A) (A) (A) (A) (A) (A) (A) (A) (A) (A)
                 (A) (A) (A) (A) (A) (A) (A) (A) (A) (A) (A) (A)
                 (A) (A) (A) (A) (A) (A) (A) (A) (A) (A) (A) (A)
                 (A) (A) (A) (A) (A) (A) (A) (A) (A) (A) (A) (A)
                 (A) (A) (A) (A) (A) (A) (A) (A) (A) (A) (A) (A)
                 (A) (A) (A) (A) (A) (A) (A) (A) (A) (A) (A) (A)
                 (A) (A) (A) (A) (A) (A) (A) (A) (A) (A) (A) (A)
                 (A) (A) (A) (A) (A) (A) (A) (A) (A) (A) (A) (A)
                 (A) (A) (A) (A) (A) (A) (A) (A) (A) (A) (A) (A)
                 (A) (A) (A) (A) (A) (A) (A) (A) (A) (A) (A) (A)
                 (A) (A) (A) (A) (A) (A) (A) (A) (A) (A) (A) (A)
                 (A) (A) (A) (A) (A) (A) (A) (A) (A) (A) (A) (A)
                 (A) (A) (A) (A) (A) (A) (A) (A) (A) (A) (A) (A)
                 (A) (A) (A) (A) (A) (A) (A) (A) (A) (A) (A) (A)
                 (A) (A) (A) (A) (A) (A) (A) (A) (A) (A) (A) (A)
                 (A) (A) (A) (A) (A) (A) (A) (A) (A) (A) (A) (A)
                 (A) (A) (A) (A) (A) (A) (A) (A) (A) (A) (A) (A)
                 (A) (A) (A) (A) (A) (A) (A) (A) (A) (A) (A) (A)
                 (A) (A) (A) (A) (A) (A) (A) (A) (A) (A) (A) (A)
                 (A) (A) (A) (A) (A) (A) (A) (A) (A) (A) (A) (A)
                 (A) (A) (A) (A) (A) (A) (A) (A) (A) (A) (A) (A)
                 (A) (A) (A) (A) (A) (A) (A) (A) (A) (A) (A) (A)
                 (A) (A) (A) (A) (A) (A) (A) (A) (A) (A) (A) (A)
                 (A) (A) (A) (A) (A) (A) (A) (A) (A) (A) (A) (A)
                 (A) (A) (A) (A) (A) (A) (A) (A) (A) (A) (A) (A)
                 (A) (A) (A) (A) (A) (A) (A) (A) (A) (A) (A) (A)
                 (A) (A) (A) (A) (A) (A) (A) (A) (A) (A) (A) (A)
                 (A) (A) (A) (A) (A) (A) (A) (A) (A) (A) (A)
 The electronic state is 1-A.
 Alpha  occ. eigenvalues -- -482.94879-235.69767 -89.03718 -89.03382 -62.52938
 Alpha  occ. eigenvalues --  -56.33510 -56.33479 -56.33478 -27.46520 -23.52269
 Alpha  occ. eigenvalues --  -23.52247 -23.52038 -19.33869 -19.33862 -19.33663
 Alpha  occ. eigenvalues --  -14.48662 -14.48611 -14.47834 -10.41402 -10.41398
 Alpha  occ. eigenvalues --  -10.41288 -10.36813 -10.35713 -10.35707 -10.35668
 Alpha  occ. eigenvalues --  -10.35625 -10.35560 -10.35348 -10.35339 -10.35227
 Alpha  occ. eigenvalues --  -10.35220 -10.34093 -10.34088 -10.33595 -10.33582
 Alpha  occ. eigenvalues --  -10.33513 -10.33511 -10.33373 -10.33187 -10.32616
 Alpha  occ. eigenvalues --  -10.32451 -10.32448 -10.32317 -10.32236 -10.32201
 Alpha  occ. eigenvalues --  -10.32193 -10.32190 -10.32184 -10.32059 -10.32056
 Alpha  occ. eigenvalues --   -8.69734  -8.08748  -8.08546  -6.51493  -6.51368
 Alpha  occ. eigenvalues --   -6.51365  -6.04216  -6.04006  -6.03817  -6.03611
 Alpha  occ. eigenvalues --   -6.03183  -6.02980  -3.25842  -2.61995  -2.61961
 Alpha  occ. eigenvalues --   -2.61959  -2.61858  -2.61858  -2.11195  -2.11127
 Alpha  occ. eigenvalues --   -2.10848  -1.22868  -1.22757  -1.22515  -1.07062
 Alpha  occ. eigenvalues --   -1.06887  -1.03172  -1.00774  -0.98374  -0.97931
 Alpha  occ. eigenvalues --   -0.94071  -0.92770  -0.91758  -0.90509  -0.88972
 Alpha  occ. eigenvalues --   -0.88169  -0.87577  -0.86346  -0.86219  -0.84864
 Alpha  occ. eigenvalues --   -0.82501  -0.78531  -0.75610  -0.75286  -0.75080
 Alpha  occ. eigenvalues --   -0.74715  -0.74373  -0.74333  -0.71939  -0.71802
 Alpha  occ. eigenvalues --   -0.70083  -0.69481  -0.68466  -0.66703  -0.65706
 Alpha  occ. eigenvalues --   -0.65016  -0.64695  -0.63996  -0.63920  -0.61728
 Alpha  occ. eigenvalues --   -0.61057  -0.60199  -0.59464  -0.59234  -0.58473
 Alpha  occ. eigenvalues --   -0.57676  -0.57485  -0.57206  -0.57076  -0.56821
 Alpha  occ. eigenvalues --   -0.56649  -0.56624  -0.56212  -0.54939  -0.54811
 Alpha  occ. eigenvalues --   -0.54154  -0.54061  -0.53770  -0.53119  -0.52913
 Alpha  occ. eigenvalues --   -0.52598  -0.52344  -0.52131  -0.51813  -0.51702
 Alpha  occ. eigenvalues --   -0.51311  -0.51238  -0.50890  -0.50358  -0.50107
 Alpha  occ. eigenvalues --   -0.49694  -0.48972  -0.48581  -0.48024  -0.47603
 Alpha  occ. eigenvalues --   -0.47138  -0.46392  -0.45924  -0.45573  -0.44933
 Alpha  occ. eigenvalues --   -0.44240  -0.44108  -0.43966  -0.43296  -0.41049
 Alpha  occ. eigenvalues --   -0.40771  -0.39759  -0.39662  -0.39361  -0.37955
 Alpha  occ. eigenvalues --   -0.37059  -0.36361  -0.35622  -0.35551  -0.35391
 Alpha  occ. eigenvalues --   -0.33731  -0.32802  -0.31430  -0.31179  -0.30734
 Alpha  occ. eigenvalues --   -0.29762  -0.28598  -0.28429  -0.26146
 Alpha virt. eigenvalues --    0.00121   0.00852   0.00883   0.01832   0.02239
 Alpha virt. eigenvalues --    0.02618   0.03583   0.04002   0.04552   0.04996
 Alpha virt. eigenvalues --    0.05147   0.05477   0.05805   0.07177   0.07288
 Alpha virt. eigenvalues --    0.08406   0.09657   0.09738   0.09913   0.11001
 Alpha virt. eigenvalues --    0.11506   0.12392   0.12955   0.13265   0.13776
 Alpha virt. eigenvalues --    0.14475   0.14748   0.15094   0.15650   0.16158
 Alpha virt. eigenvalues --    0.16173   0.17206   0.17361   0.17985   0.18463
 Alpha virt. eigenvalues --    0.18969   0.19432   0.19674   0.20212   0.20489
 Alpha virt. eigenvalues --    0.20900   0.20978   0.21812   0.22152   0.22532
 Alpha virt. eigenvalues --    0.22709   0.22953   0.23283   0.23596   0.24072
 Alpha virt. eigenvalues --    0.24371   0.25710   0.26328   0.27043   0.27735
 Alpha virt. eigenvalues --    0.28962   0.29089   0.30255   0.30775   0.31337
 Alpha virt. eigenvalues --    0.31797   0.31866   0.32464   0.32900   0.33051
 Alpha virt. eigenvalues --    0.33224   0.33442   0.33739   0.34266   0.34686
 Alpha virt. eigenvalues --    0.35212   0.35520   0.35775   0.36044   0.36440
 Alpha virt. eigenvalues --    0.36562   0.37010   0.37124   0.37389   0.37830
 Alpha virt. eigenvalues --    0.38017   0.39433   0.39613   0.39782   0.40702
 Alpha virt. eigenvalues --    0.41045   0.41069   0.42047   0.42379   0.42792
 Alpha virt. eigenvalues --    0.43364   0.43562   0.45870   0.45987   0.46288
 Alpha virt. eigenvalues --    0.46811   0.47022   0.47512   0.47805   0.48416
 Alpha virt. eigenvalues --    0.48584   0.49046   0.49067   0.49908   0.49946
 Alpha virt. eigenvalues --    0.50651   0.50696   0.51121   0.51700   0.52345
 Alpha virt. eigenvalues --    0.52620   0.52892   0.52982   0.53308   0.53737
 Alpha virt. eigenvalues --    0.54487   0.54629   0.54958   0.55119   0.55215
 Alpha virt. eigenvalues --    0.55949   0.56126   0.56396   0.56508   0.56719
 Alpha virt. eigenvalues --    0.57672   0.57980   0.58693   0.59071   0.59496
 Alpha virt. eigenvalues --    0.59620   0.60333   0.60624   0.61024   0.61466
 Alpha virt. eigenvalues --    0.62158   0.62602   0.63248   0.63600   0.64100
 Alpha virt. eigenvalues --    0.64718   0.65016   0.65390   0.65471   0.65837
 Alpha virt. eigenvalues --    0.65940   0.66321   0.66817   0.66993   0.67764
 Alpha virt. eigenvalues --    0.68070   0.68687   0.68944   0.69000   0.69068
 Alpha virt. eigenvalues --    0.69220   0.70366   0.70588   0.70698   0.70737
 Alpha virt. eigenvalues --    0.71462   0.71815   0.71944   0.72488   0.72587
 Alpha virt. eigenvalues --    0.72891   0.73224   0.73562   0.73936   0.73951
 Alpha virt. eigenvalues --    0.74104   0.74780   0.75128   0.75209   0.75511
 Alpha virt. eigenvalues --    0.75553   0.76170   0.76431   0.76620   0.76646
 Alpha virt. eigenvalues --    0.77550   0.77862   0.77946   0.78236   0.78537
 Alpha virt. eigenvalues --    0.78790   0.79026   0.79224   0.79975   0.80150
 Alpha virt. eigenvalues --    0.80451   0.80574   0.80741   0.81584   0.81962
 Alpha virt. eigenvalues --    0.82600   0.83141   0.83336   0.84053   0.84380
 Alpha virt. eigenvalues --    0.84724   0.84933   0.85005   0.85245   0.85538
 Alpha virt. eigenvalues --    0.86008   0.86102   0.86420   0.86470   0.86637
 Alpha virt. eigenvalues --    0.87059   0.87810   0.88648   0.88805   0.89596
 Alpha virt. eigenvalues --    0.89890   0.90010   0.90220   0.90278   0.90825
 Alpha virt. eigenvalues --    0.91490   0.91631   0.92100   0.92576   0.93006
 Alpha virt. eigenvalues --    0.93626   0.93984   0.94850   0.94895   0.95909
 Alpha virt. eigenvalues --    0.96153   0.96820   0.97728   0.98284   0.98651
 Alpha virt. eigenvalues --    0.99268   0.99902   1.00520   1.00932   1.01466
 Alpha virt. eigenvalues --    1.02320   1.03365   1.03857   1.04330   1.05196
 Alpha virt. eigenvalues --    1.06236   1.06464   1.07353   1.08842   1.09357
 Alpha virt. eigenvalues --    1.09961   1.10571   1.11048   1.12259   1.12755
 Alpha virt. eigenvalues --    1.13275   1.13533   1.13793   1.14504   1.15321
 Alpha virt. eigenvalues --    1.15701   1.16881   1.18011   1.18555   1.18836
 Alpha virt. eigenvalues --    1.20164   1.20235   1.21055   1.21923   1.22364
 Alpha virt. eigenvalues --    1.22548   1.23370   1.24720   1.24943   1.25696
 Alpha virt. eigenvalues --    1.26316   1.26493   1.28449   1.28938   1.29011
 Alpha virt. eigenvalues --    1.29664   1.29703   1.29871   1.30329   1.30482
 Alpha virt. eigenvalues --    1.30809   1.30974   1.31397   1.31657   1.32306
 Alpha virt. eigenvalues --    1.33781   1.34665   1.35145   1.35266   1.35578
 Alpha virt. eigenvalues --    1.35813   1.35949   1.36345   1.36472   1.37285
 Alpha virt. eigenvalues --    1.37839   1.38677   1.38986   1.39183   1.40572
 Alpha virt. eigenvalues --    1.40644   1.41869   1.42857   1.45688   1.45901
 Alpha virt. eigenvalues --    1.47242   1.49645   1.50246   1.50496   1.51662
 Alpha virt. eigenvalues --    1.51785   1.52323   1.54707   1.56241   1.56303
 Alpha virt. eigenvalues --    1.57526   1.59122   1.59335   1.60569   1.62299
 Alpha virt. eigenvalues --    1.62373   1.63873   1.65847   1.66214   1.68081
 Alpha virt. eigenvalues --    1.68118   1.68401   1.69422   1.69701   1.70437
 Alpha virt. eigenvalues --    1.72663   1.73036   1.73082   1.73213   1.73329
 Alpha virt. eigenvalues --    1.74606   1.75401   1.75744   1.76175   1.76516
 Alpha virt. eigenvalues --    1.77142   1.77245   1.77496   1.77983   1.78197
 Alpha virt. eigenvalues --    1.78410   1.78680   1.79261   1.79365   1.79596
 Alpha virt. eigenvalues --    1.80087   1.80221   1.81046   1.81195   1.81854
 Alpha virt. eigenvalues --    1.81928   1.82207   1.82631   1.82703   1.83185
 Alpha virt. eigenvalues --    1.83839   1.84003   1.84581   1.84691   1.85373
 Alpha virt. eigenvalues --    1.85811   1.86425   1.86649   1.87646   1.87968
 Alpha virt. eigenvalues --    1.88625   1.88719   1.89638   1.89738   1.90262
 Alpha virt. eigenvalues --    1.90699   1.91646   1.92168   1.92227   1.92836
 Alpha virt. eigenvalues --    1.94102   1.94711   1.95260   1.96979   1.97254
 Alpha virt. eigenvalues --    1.97923   1.98773   1.99483   1.99706   1.99923
 Alpha virt. eigenvalues --    2.00920   2.01733   2.02084   2.02667   2.03068
 Alpha virt. eigenvalues --    2.03541   2.03748   2.03921   2.04517   2.04573
 Alpha virt. eigenvalues --    2.04660   2.05422   2.06481   2.06977   2.07657
 Alpha virt. eigenvalues --    2.07798   2.09487   2.10154   2.11108   2.11257
 Alpha virt. eigenvalues --    2.11777   2.11944   2.12930   2.13247   2.15450
 Alpha virt. eigenvalues --    2.16552   2.17233   2.17899   2.18325   2.19366
 Alpha virt. eigenvalues --    2.19429   2.20374   2.20686   2.21622   2.22320
 Alpha virt. eigenvalues --    2.22791   2.24131   2.24806   2.25841   2.26966
 Alpha virt. eigenvalues --    2.26995   2.29320   2.29731   2.29884   2.30144
 Alpha virt. eigenvalues --    2.31292   2.31606   2.32841   2.33191   2.34316
 Alpha virt. eigenvalues --    2.34916   2.35030   2.35156   2.35497   2.36581
 Alpha virt. eigenvalues --    2.37280   2.37793   2.38047   2.38380   2.38709
 Alpha virt. eigenvalues --    2.39280   2.40185   2.40348   2.40728   2.41112
 Alpha virt. eigenvalues --    2.41830   2.42181   2.42634   2.43047   2.45751
 Alpha virt. eigenvalues --    2.47227   2.48669   2.49026   2.50472   2.50745
 Alpha virt. eigenvalues --    2.53544   2.54309   2.56779   2.57156   2.59231
 Alpha virt. eigenvalues --    2.59787   2.60181   2.62617   2.63426   2.67006
 Alpha virt. eigenvalues --    2.67204   2.67596   2.67989   2.68452   2.69038
 Alpha virt. eigenvalues --    2.69750   2.69857   2.70164   2.70248   2.70667
 Alpha virt. eigenvalues --    2.70680   2.71003   2.71283   2.71475   2.72891
 Alpha virt. eigenvalues --    2.73174   2.76070   2.76697   2.77604   2.79020
 Alpha virt. eigenvalues --    2.80046   2.80488   2.80524   2.80746   2.81768
 Alpha virt. eigenvalues --    2.82172   2.83262   2.84404   2.86506   2.87194
 Alpha virt. eigenvalues --    2.88308   2.88850   2.89131   2.89253   2.91891
 Alpha virt. eigenvalues --    2.92903   2.93329   2.94922   2.98819   3.00000
 Alpha virt. eigenvalues --    3.00104   3.01844   3.03394   3.04842   3.05363
 Alpha virt. eigenvalues --    3.05438   3.06187   3.09174   3.09553   3.09946
 Alpha virt. eigenvalues --    3.10711   3.16012   3.16448   3.16857   3.21067
 Alpha virt. eigenvalues --    3.21909   3.22090   3.22167   3.23896   3.24517
 Alpha virt. eigenvalues --    3.24818   3.25078   3.30167   3.31058   3.35062
 Alpha virt. eigenvalues --    3.37695   3.40744   3.41903   3.46802   3.48625
 Alpha virt. eigenvalues --    3.51939   3.54231   3.55571   3.57606   3.58677
 Alpha virt. eigenvalues --    3.60038   3.60515   3.62855   3.63385   3.65592
 Alpha virt. eigenvalues --    3.66190   3.70942   3.71647   3.72376   3.76646
 Alpha virt. eigenvalues --    3.78829   3.84425   3.86983   3.89450   3.92545
 Alpha virt. eigenvalues --    3.93755   3.97407   4.00176   4.08962   4.09539
          Condensed to atoms (all electrons):
 Mulliken charges:
               1
     1  Mn  -0.813582
     2  C    0.373360
     3  O   -0.073053
     4  C    0.375411
     5  O   -0.072969
     6  C    0.294443
     7  N   -0.189162
     8  C   -0.039406
     9  C    0.041992
    10  C    0.162391
    11  H    0.055023
    12  H    0.050840
    13  N    0.122733
    14  C    0.000037
    15  C   -0.148271
    16  C    0.018462
    17  C   -0.024421
    18  C    0.024252
    19  H    0.073910
    20  H    0.049334
    21  N   -0.187981
    22  C   -0.039941
    23  C    0.042719
    24  H    0.054977
    25  C    0.139485
    26  H    0.080907
    27  C    0.138963
    28  H    0.079768
    29  H    0.052971
    30  O   -0.076320
    31  S    0.110384
    32  S    0.082545
    33  C   -0.066212
    34  C    0.011172
    35  C   -0.031436
    36  C   -0.017787
    37  C   -0.005302
    38  C   -0.087938
    39  C   -0.051959
    40  H    0.037812
    41  H    0.049107
    42  H    0.040270
    43  C   -0.049701
    44  C   -0.089941
    45  C   -0.004778
    46  C   -0.018077
    47  C   -0.030175
    48  C    0.009342
    49  H    0.040280
    50  H    0.049144
    51  H    0.037935
    52  C   -0.066228
    53  H    0.050621
    54  C    0.163697
    55  H    0.018837
    56  H    0.021520
    57  C   -0.005711
    58  C   -0.025083
    59  H    0.052359
    60  H    0.054442
    61  Br  -0.846010
 Sum of Mulliken charges =  -0.00000
 Mulliken charges with hydrogens summed into heavy atoms:
               1
     1  Mn  -0.813582
     2  C    0.373360
     3  O   -0.073053
     4  C    0.375411
     5  O   -0.072969
     6  C    0.294443
     7  N   -0.189162
     8  C    0.015617
     9  C    0.092832
    10  C    0.183911
    13  N    0.122733
    14  C    0.000037
    15  C   -0.148271
    16  C    0.092371
    17  C    0.028551
    18  C    0.073585
    21  N   -0.187981
    22  C    0.015036
    23  C    0.093340
    25  C    0.220392
    27  C    0.218731
    30  O   -0.076320
    31  S    0.110384
    32  S    0.082545
    33  C   -0.066212
    34  C    0.011172
    35  C    0.006376
    36  C    0.031320
    37  C    0.034968
    38  C   -0.087938
    39  C   -0.051959
    43  C   -0.049701
    44  C   -0.089941
    45  C    0.035502
    46  C    0.031067
    47  C    0.007760
    48  C    0.009342
    52  C   -0.066228
    54  C    0.182534
    57  C    0.048732
    58  C    0.027275
    61  Br  -0.846010
 Electronic spatial extent (au):  <R**2>=          26939.5673
 Charge=             -0.0000 electrons
 Dipole moment (field-independent basis, Debye):
    X=              1.1235    Y=              0.2415    Z=              3.0844  Tot=              3.2915
 Quadrupole moment (field-independent basis, Debye-Ang):
   XX=           -188.9809   YY=           -225.2680   ZZ=           -293.6193
   XY=              2.6391   XZ=            -14.1311   YZ=              0.8227
 Traceless Quadrupole moment (field-independent basis, Debye-Ang):
   XX=             46.9752   YY=             10.6880   ZZ=            -57.6632
   XY=              2.6391   XZ=            -14.1311   YZ=              0.8227
 Octapole moment (field-independent basis, Debye-Ang**2):
  XXX=            513.8317  YYY=             -1.6066  ZZZ=            -14.6002  XYY=           -100.5597
  XXY=              5.1917  XXZ=            -39.6518  XZZ=             89.6162  YZZ=              2.1237
  YYZ=            -23.8686  XYZ=            -14.9601
 Hexadecapole moment (field-independent basis, Debye-Ang**3):
 XXXX=         -20255.1220 YYYY=          -6086.9077 ZZZZ=          -3478.3900 XXXY=            125.0532
 XXXZ=           -936.3689 YYYX=             -7.2314 YYYZ=             45.6962 ZZZX=           -189.8077
 ZZZY=            -19.9770 XXYY=          -5144.1582 XXZZ=          -4771.2488 YYZZ=          -1806.5640
 XXYZ=            -48.3134 YYXZ=           -103.4144 ZZXY=             23.5251
 N-N= 6.687873807149D+03 E-N=-2.792251886007D+04  KE= 6.117470801703D+03
 PrsmSu:  requested number of processors reduced to:  11 ShMem   1 Linda.
 D1PCM: PCM CHGder 1st derivatives, ID1Alg=3 FixD1E=F DoIter=F DoCFld=F I1PDM=0.
 CoulSu:  requested number of processors reduced to:  10 ShMem   1 Linda.
 CoulSu:  requested number of processors reduced to:  10 ShMem   1 Linda.
 Calling FoFJK, ICntrl=      2127 FMM=T ISym2X=0 I1Cent= 0 IOpClX= 0 NMat=1 NMatS=1 NMatT=0.
 ***** Axes restored to original set *****
 -------------------------------------------------------------------
 Center     Atomic                   Forces (Hartrees/Bohr)
 Number     Number              X              Y              Z
 -------------------------------------------------------------------
      1       25           0.052995787   -0.007729208   -0.028039740
      2        6           0.000753975    0.003320973    0.001614707
      3        8           0.000105006   -0.001020143   -0.000666761
      4        6          -0.000784360    0.003379466   -0.001057332
      5        8           0.000490480   -0.001042714    0.000475752
      6        6           0.003507621    0.003375035   -0.001378863
[...]
   D42        0.81440  -0.00034   0.00000  -0.00337  -0.00338   0.81102
   D43        1.06442  -0.00029   0.00000  -0.00228  -0.00232   1.06210
   D44        2.57555  -0.00038   0.00000   0.00274   0.00263   2.57818
   D45       -0.66271  -0.00094   0.00000  -0.00628  -0.00625  -0.66896
   D46       -2.29568  -0.00005   0.00000  -0.00452  -0.00451  -2.30019
   D47       -2.04566  -0.00000   0.00000  -0.00343  -0.00345  -2.04912
   D48       -0.53453  -0.00010   0.00000   0.00159   0.00150  -0.53303
   D49        2.51039  -0.00065   0.00000  -0.00743  -0.00738   2.50301
   D50        3.02729   0.00013   0.00000   0.01314   0.01311   3.04040
   D51       -0.13412   0.00001   0.00000   0.01419   0.01418  -0.11994
   D52       -0.06111   0.00014   0.00000  -0.00029  -0.00030  -0.06141
   D53        3.06067   0.00002   0.00000   0.00076   0.00077   3.06143
   D54       -3.08016   0.00018   0.00000  -0.01247  -0.01246  -3.09262
   D55        0.05288  -0.00006   0.00000  -0.01197  -0.01196   0.04092
   D56        0.01093   0.00012   0.00000   0.00021   0.00020   0.01113
   D57       -3.13922  -0.00012   0.00000   0.00071   0.00070  -3.13852
   D58       -0.00979   0.00007   0.00000   0.00013   0.00012  -0.00966
   D59        3.13703  -0.00004   0.00000   0.00058   0.00059   3.13761
   D60        3.10465   0.00012   0.00000   0.00053   0.00053   3.10517
   D61       -0.03172   0.00001   0.00000   0.00099   0.00099  -0.03073
   D62        0.03454  -0.00018   0.00000  -0.00058  -0.00057   0.03397
   D63       -3.09819   0.00007   0.00000  -0.00109  -0.00109  -3.09928
   D64       -3.13371  -0.00014   0.00000  -0.00017  -0.00016  -3.13387
   D65        0.01674   0.00011   0.00000  -0.00068  -0.00068   0.01606
   D66       -0.01330   0.00020   0.00000  -0.00107  -0.00107  -0.01437
   D67       -3.12301   0.00019   0.00000  -0.00511  -0.00513  -3.12813
   D68        3.13349   0.00009   0.00000  -0.00061  -0.00061   3.13288
   D69        0.02378   0.00007   0.00000  -0.00465  -0.00466   0.01912
   D70        0.06254  -0.00032   0.00000   0.00073   0.00074   0.06328
   D71       -3.10988  -0.00031   0.00000   0.00473   0.00475  -3.10513
   D72       -3.05903  -0.00020   0.00000  -0.00033  -0.00033  -3.05937
   D73        0.05174  -0.00019   0.00000   0.00367   0.00367   0.05541
   D74       -3.13856  -0.00059   0.00000   0.00019   0.00019  -3.13837
   D75        0.00477  -0.00091   0.00000   0.00007   0.00007   0.00484
   D76        0.00164  -0.00027   0.00000  -0.00127  -0.00129   0.00035
   D77       -3.13822  -0.00060   0.00000  -0.00138  -0.00141  -3.13962
   D78        0.00008   0.00030   0.00000  -0.00011  -0.00013  -0.00004
   D79        3.13876   0.00053   0.00000  -0.00069  -0.00069   3.13807
   D80       -3.14006  -0.00003   0.00000   0.00139   0.00140  -3.13866
   D81       -0.00138   0.00020   0.00000   0.00082   0.00084  -0.00055
   D82        3.14132  -0.00003   0.00000   0.00015   0.00015   3.14147
   D83       -0.00101   0.00016   0.00000   0.00082   0.00083  -0.00018
   D84       -0.00206   0.00031   0.00000   0.00027   0.00028  -0.00178
   D85        3.13879   0.00050   0.00000   0.00094   0.00095   3.13975
   D86        0.28116   0.00029   0.00000  -0.00367  -0.00366   0.27750
   D87        0.43519   0.00028   0.00000  -0.00324  -0.00326   0.43194
   D88       -0.15729   0.00028   0.00000  -0.00094  -0.00090  -0.15819
   D89       -0.27247  -0.00046   0.00000  -0.01423  -0.01429  -0.28676
   D90       -2.85865  -0.00004   0.00000  -0.00379  -0.00378  -2.86243
   D91       -2.70462  -0.00006   0.00000  -0.00336  -0.00338  -2.70800
   D92        2.98608  -0.00005   0.00000  -0.00106  -0.00102   2.98506
   D93        2.87090  -0.00079   0.00000  -0.01435  -0.01441   2.85649
   D94        0.00016   0.00000   0.00000   0.00006   0.00006   0.00022
   D95       -3.14149  -0.00007   0.00000  -0.00043  -0.00043   3.14127
   D96        3.14101   0.00019   0.00000   0.00073   0.00074  -3.14144
   D97       -0.00064   0.00012   0.00000   0.00025   0.00025  -0.00039
   D98        0.00051  -0.00003   0.00000   0.00008   0.00007   0.00058
   D99       -3.14011  -0.00011   0.00000   0.00028   0.00027  -3.13984
   D100       3.13917   0.00020   0.00000  -0.00050  -0.00050   3.13867
   D101      -0.00145   0.00013   0.00000  -0.00030  -0.00030  -0.00174
   D102      -0.25523   0.00035   0.00000   0.00354   0.00351  -0.25172
   D103      -0.35722   0.00046   0.00000   0.00290   0.00288  -0.35434
   D104       0.32144   0.00012   0.00000  -0.00314  -0.00314   0.31830
   D105       0.47358   0.00105   0.00000   0.01354   0.01358   0.48716
   D106       3.07244   0.00035   0.00000   0.00363   0.00362   3.07606
   D107      -0.05608  -0.00006   0.00000   0.00476   0.00474  -0.05134
   D108      -0.01038  -0.00001   0.00000  -0.00217  -0.00217  -0.01255
   D109      -3.13890  -0.00042   0.00000  -0.00105  -0.00104  -3.13995
   D110      -3.01524  -0.00027   0.00000  -0.00503  -0.00501  -3.02024
   D111       0.14123  -0.00037   0.00000  -0.00893  -0.00893   0.13230
   D112       0.06443   0.00020   0.00000   0.00108   0.00109   0.06552
   D113      -3.06229   0.00010   0.00000  -0.00283  -0.00283  -3.06512
   D114      -3.13984   0.00014   0.00000  -0.00075  -0.00075  -3.14059
   D115       0.01188  -0.00000   0.00000   0.00006   0.00007   0.01194
   D116       0.03020   0.00025   0.00000  -0.00153  -0.00152   0.02868
   D117      -3.10127   0.00011   0.00000  -0.00072  -0.00071  -3.10198
   D118      -0.03595  -0.00022   0.00000   0.00243   0.00242  -0.03353
   D119       3.09212   0.00020   0.00000   0.00126   0.00125   3.09337
   D120       3.13355  -0.00011   0.00000   0.00165   0.00165   3.13520
   D121      -0.02156   0.00031   0.00000   0.00048   0.00048  -0.02108
   D122       3.14107   0.00001   0.00000   0.00639   0.00641  -3.13570
   D123       0.01831  -0.00005   0.00000   0.00054   0.00055   0.01885
   D124      -0.01060   0.00014   0.00000   0.00558   0.00560  -0.00500
   D125      -3.13336   0.00008   0.00000  -0.00027  -0.00027  -3.13362
   D126      -2.42486   0.00039   0.00000   0.00102   0.00102  -2.42385
   D127       0.80110   0.00014   0.00000   0.00026   0.00026   0.80136
   D128      -0.80092  -0.00021   0.00000  -0.00161  -0.00161  -0.80253
   D129       2.42703  -0.00035   0.00000  -0.00209  -0.00208   2.42495
   D130       2.44819  -0.00034   0.00000   0.00145   0.00146   2.44965
   D131      -0.75100  -0.00018   0.00000   0.00200   0.00200  -0.74899
   D132       0.75122   0.00012   0.00000  -0.00335  -0.00336   0.74787
   D133      -2.44951   0.00024   0.00000  -0.00242  -0.00243  -2.45194
   D134       1.00551  -0.00023   0.00000   0.01396   0.01397   1.01948
   D135      -2.13305  -0.00035   0.00000   0.01146   0.01146  -2.12159
   D136      -2.10352  -0.00024   0.00000   0.00979   0.00979  -2.09374
   D137       1.04110  -0.00037   0.00000   0.00728   0.00728   1.04838
   D138       3.10514  -0.00003   0.00000  -0.00283  -0.00284   3.10230
   D139      -0.00951  -0.00008   0.00000  -0.00280  -0.00280  -0.01232
   D140      -0.03940   0.00009   0.00000  -0.00041  -0.00041  -0.03981
   D141       3.12914   0.00004   0.00000  -0.00038  -0.00038   3.12877
   D142       0.12170  -0.00015   0.00000   0.00287   0.00287   0.12457
   D143      -3.10452   0.00012   0.00000   0.00363   0.00363  -3.10089
   D144      -3.01687  -0.00027   0.00000   0.00037   0.00038  -3.01650
   D145       0.04010   0.00000   0.00000   0.00113   0.00113   0.04123
   D146      -0.00023  -0.00009   0.00000  -0.00039  -0.00039  -0.00062
   D147      -3.12431  -0.00003   0.00000  -0.00018  -0.00018  -3.12449
   D148       3.11414  -0.00004   0.00000  -0.00042  -0.00043   3.11371
   D149      -0.00994   0.00002   0.00000  -0.00021  -0.00021  -0.01016
   D150       0.03931  -0.00001   0.00000   0.00048   0.00048   0.03979
   D151      -3.11761   0.00011   0.00000   0.00066   0.00066  -3.11695
   D152      -3.11977  -0.00007   0.00000   0.00027   0.00027  -3.11950
   D153       0.00650   0.00005   0.00000   0.00045   0.00045   0.00695
   D154       3.04603   0.00027   0.00000   0.00082   0.00081   3.04684
   D155      -0.03826   0.00011   0.00000   0.00025   0.00024  -0.03801
   D156      -0.08038   0.00015   0.00000   0.00064   0.00064  -0.07974
   D157       3.11852  -0.00001   0.00000   0.00007   0.00007   3.11859
   D158      -0.02707   0.00001   0.00000  -0.00093  -0.00093  -0.02800
   D159      -3.08475  -0.00026   0.00000  -0.00163  -0.00163  -3.08638
   D160       3.05593   0.00016   0.00000  -0.00035  -0.00035   3.05558
   D161      -0.00175  -0.00011   0.00000  -0.00105  -0.00105  -0.00280
   D162       0.02629   0.00009   0.00000   0.00328   0.00328   0.02956
   D163      -3.05518  -0.00002   0.00000   0.00231   0.00231  -3.05288
   D164       3.08199   0.00022   0.00000   0.00371   0.00370   3.08569
   D165       0.00052   0.00010   0.00000   0.00273   0.00273   0.00325
   D166       3.01457   0.00011   0.00000  -0.00238  -0.00238   3.01219
   D167      -0.11839   0.00012   0.00000  -0.00379  -0.00379  -0.12219
   D168      -0.04045  -0.00004   0.00000  -0.00287  -0.00287  -0.04331
   D169       3.10977  -0.00003   0.00000  -0.00428  -0.00428   3.10550
   D170      -3.04326  -0.00020   0.00000  -0.00163  -0.00162  -3.04488
   D171       0.08186  -0.00012   0.00000  -0.00167  -0.00167   0.08020
   D172       0.03949  -0.00008   0.00000  -0.00068  -0.00068   0.03881
   D173      -3.11858   0.00000   0.00000  -0.00072  -0.00072  -3.11930
   D174      -0.03899  -0.00001   0.00000  -0.00124  -0.00124  -0.04023
   D175       3.11909   0.00003   0.00000  -0.00075  -0.00075   3.11834
   D176       3.11922  -0.00009   0.00000  -0.00120  -0.00120   3.11803
   D177      -0.00588  -0.00005   0.00000  -0.00071  -0.00071  -0.00659
   D178      -0.00167   0.00007   0.00000   0.00108   0.00108  -0.00059
   D179      -3.11678   0.00001   0.00000   0.00041   0.00041  -3.11637
   D180       3.12341   0.00003   0.00000   0.00059   0.00059   3.12400
   D181       0.00830  -0.00003   0.00000  -0.00008  -0.00008   0.00822
   D182       0.04130  -0.00004   0.00000   0.00097   0.00097   0.04227
   D183      -3.10873  -0.00005   0.00000   0.00233   0.00233  -3.10640
   D184      -3.12650   0.00002   0.00000   0.00164   0.00164  -3.12486
   D185       0.00665   0.00001   0.00000   0.00300   0.00300   0.00965
   D186       2.09521  -0.00012   0.00000  -0.01611  -0.01611   2.07910
   D187      -1.06559  -0.00007   0.00000  -0.01011  -0.01011  -1.07570
   D188      -1.03770  -0.00012   0.00000  -0.01752  -0.01753  -1.05523
   D189       2.08468  -0.00006   0.00000  -0.01152  -0.01152   2.07316
   D190      -0.06871  -0.00016   0.00000  -0.00030  -0.00031  -0.06902
   D191       3.05786  -0.00007   0.00000   0.00365   0.00365   3.06151
   D192       3.09108  -0.00021   0.00000  -0.00599  -0.00601   3.08507
   D193      -0.06553  -0.00011   0.00000  -0.00205  -0.00205  -0.06758
   D194       0.00009  -0.00007   0.00000  -0.00051  -0.00052  -0.00043
   D195       3.14071   0.00001   0.00000  -0.00072  -0.00072   3.13999
   D196      -3.14144   0.00001   0.00000  -0.00003  -0.00003  -3.14147
   D197      -0.00083   0.00008   0.00000  -0.00023  -0.00023  -0.00106
         Item               Value     Threshold  Converged?
 Maximum Force            0.005491     0.000450     NO 
 RMS     Force            0.000544     0.000300     NO 
 Maximum Displacement     0.162678     0.001800     NO 
 RMS     Displacement     0.036350     0.001200     NO 
 Predicted change in Energy=-1.352518D-03
 GradGradGradGradGradGradGradGradGradGradGradGradGradGradGradGradGradGrad

 Stoichiometry    C32H19BrMnN3O3S2
 Framework group  C1[X(C32H19BrMnN3O3S2)]
 Deg. of freedom   177
 Full point group                 C1      NOp   1
 Largest Abelian subgroup         C1      NOp   1
 Largest concise Abelian subgroup C1      NOp   1
                         Standard orientation:                         
 ---------------------------------------------------------------------
 Center     Atomic      Atomic             Coordinates (Angstroms)
 Number     Number       Type             X           Y           Z
 ---------------------------------------------------------------------
      1         25           0        1.284787   -0.121581    1.515160
      2          6           0        2.375675    1.120360    2.331661
      3          8           0        3.040945    1.877597    2.865497
      4          6           0        2.333704   -1.466793    2.209154
      5          8           0        2.966292   -2.286226    2.688696
      6          6           0        0.233704   -0.173917    2.962320
      7          7           0        0.192381   -1.575635    0.456212
      8          6           0        0.214655   -3.413908   -1.080198
      9          6           0       -1.176600   -3.440565   -1.107721
     10          6           0       -1.140124   -1.645883    0.461134
     11          1           0        0.805962   -4.111015   -1.673596
     12          1           0       -1.710085   -4.158311   -1.734511
     13          7           0        4.225338   -0.100101    0.609898
     14          6           0        5.330452   -0.088381    0.269689
     15          6           0        6.650935    0.000313   -0.286883
     16          6           0        6.769895    0.399613   -1.626572
     17          6           0        8.033734    0.492769   -2.199990
     18          6           0        7.785678   -0.304020    0.477017
     19          1           0        5.865081    0.631115   -2.192443
     20          1           0        7.678280   -0.615940    1.517039
     21          7           0        0.227454    1.458818    0.609492
     22          6           0        0.292533    3.401237   -0.791772
     23          6           0       -1.096656    3.479582   -0.791725
     24          1           0        0.900201    4.116828   -1.345299
     25          6           0        0.859646   -2.460315   -0.306080
     26          1           0        1.947415   -2.395363   -0.299937
     27          6           0        0.913092    2.372154   -0.099648
     28          1           0        1.996569    2.265298   -0.122978
     29          1           0        8.135121    0.802497   -3.241467
     30          8           0       -0.484975   -0.228194    3.853968
     31         16           0       -3.252096    0.083129   -1.314599
     32         16           0       -6.430602    0.106043   -1.009376
     33          6           0       -1.881938   -2.527383   -0.323761
     34          6           0       -3.369163   -2.484182   -0.269277
     35          6           0       -4.075190   -3.622924    0.134682
     36          6           0       -5.463219   -3.604903    0.242180
     37          6           0       -6.170929   -2.443642   -0.052775
     38          6           0       -5.488384   -1.310971   -0.502762
     39          6           0       -4.090981   -1.323795   -0.615120
     40          1           0       -3.518966   -4.526913    0.391487
     41          1           0       -5.996947   -4.497091    0.574034
     42          1           0       -7.257363   -2.414159    0.050979
     43          6           0       -4.058199    1.428447   -0.469235
     44          6           0       -5.455499    1.438717   -0.357914
     45          6           0       -6.110264    2.535771    0.207320
     46          6           0       -5.374667    3.642885    0.619417
     47          6           0       -3.986422    3.637774    0.513086
     48          6           0       -3.309137    2.528655   -0.005110
     49          1           0       -7.197325    2.523339    0.307752
     50          1           0       -5.886853    4.509422    1.041080
     51          1           0       -3.408058    4.497334    0.858424
     52          6           0       -1.821973    2.536532   -0.063870
     53          1           0       -1.613649    4.257144   -1.358066
     54          6           0       -1.101710    1.576217    0.645407
     55          1           0       -1.648350    0.880741    1.278292
     56          1           0       -1.672501   -0.980368    1.136415
     57          6           0        9.167078    0.190330   -1.442717
     58          6           0        9.043739   -0.206627   -0.109972
     59          1           0        9.933816   -0.443000    0.475747
     60          1           0       10.157732    0.264194   -1.896034
     61         35           0        1.988523    0.126890   -2.082189
 ---------------------------------------------------------------------
 Rotational constants (GHZ):           0.1297811           0.0379921           0.0356736
 Basis read from rwf:  (5D, 7F)
 There are   800 symmetry adapted cartesian basis functions of A   symmetry.
 There are   749 symmetry adapted basis functions of A   symmetry.
   749 basis functions,  1349 primitive gaussians,   800 cartesian basis functions
   174 alpha electrons      174 beta electrons
       nuclear repulsion energy      6451.6454048435 Hartrees.
 NAtoms=   61 NActive=   61 NUniq=   61 SFac= 1.00D+00 NAtFMM=   60 NAOKFM=T Big=T
 Integral buffers will be    131072 words long.
 Raffenetti 2 integral format.
 Two-electron integral symmetry is turned on.
 Nuclear repulsion after empirical dispersion term =     6451.5856660259 Hartrees.
 ------------------------------------------------------------------------------
 Polarizable Continuum Model (PCM)
 =================================
 Model                : PCM.
 Atomic radii         : UFF (Universal Force Field).
 Polarization charges : Total charges.
 Charge compensation  : None.
 Solution method      : On-the-fly selection.
 Cavity type          : Scaled VdW (van der Waals Surface) (Alpha=1.100).
 Cavity algorithm     : GePol (No added spheres)
                        Default sphere list used, NSphG=   61.
                        Lebedev-Laikov grids with approx.  5.0 points / Ang**2.
                        Smoothing algorithm: York/Karplus (Gamma=1.0000).
                        Polarization charges: spherical gaussians, with
                                              point-specific exponents (IZeta= 3).
                        Self-potential: point-specific (ISelfS= 7).
                        Self-field    : sphere-specific E.n sum rule (ISelfD= 2).
 1st derivatives      : Analytical E(r).r(x)/FMM algorithm (CHGder, D1EAlg=3).
                        Cavity 1st derivative terms included.
 Solvent              : TetraHydroFuran, Eps=   7.425700 Eps(inf)=   1.974025
 ------------------------------------------------------------------------------
 One-electron integrals computed using PRISM.
 PrsmSu:  requested number of processors reduced to:  11 ShMem   1 Linda.
 NBasis=   749 RedAO= T EigKep=  2.28D-04  NBF=   749
 NBsUse=   749 1.00D-06 EigRej= -1.00D+00 NBFU=   749
 Initial guess from the checkpoint file:  "checkpoint.chk"
 B after Tr=     0.000000    0.000000    0.000000
         Rot=    0.999996   -0.002558    0.001386    0.000086 Ang=  -0.33 deg.
 ExpMin= 3.93D-02 ExpMax= 2.77D+05 ExpMxC= 1.70D+04 IAcc=3 IRadAn=         5 AccDes= 0.00D+00
 Harris functional with IExCor= 4639 and IRadAn=       5 diagonalized for initial guess.
 HarFok:  IExCor= 4639 AccDes= 0.00D+00 IRadAn=         5 IDoV= 1 UseB2=F ITyADJ=14
 ICtDFT=  3500011 ScaDFX=  1.000000  1.000000  1.000000  1.000000
 FoFCou: FMM=F IPFlag=           0 FMFlag=      100000 FMFlg1=        2001
         NFxFlg=           0 DoJE=T BraDBF=F KetDBF=T FulRan=T
         wScrn=  0.000000 ICntrl=       500 IOpCl=  0 I1Cent=   200000004 NGrid=           0
         NMat0=    1 NMatS0=      1 NMatT0=    0 NMatD0=    1 NMtDS0=    0 NMtDT0=    0
 Petite list used in FoFCou.
 Requested convergence on RMS density matrix=1.00D-08 within 128 cycles.
 Requested convergence on MAX density matrix=1.00D-06.
 Requested convergence on             energy=1.00D-06.
 No special actions if energy rises.
