 Entering Gaussian System, Link 0=g16
 Initial command:
 /home1/apps/gaussian/16rA.03/g16/l1.exe "/tmp/Gau-231655.inp" -scrdir="/tmp/"
 Entering Link 1 = /home1/apps/gaussian/16rA.03/g16/l1.exe PID=    231657.
  
 Copyright (c) 1988,1990,1992,1993,1995,1998,2003,2009,2016,
            Gaussian, Inc.  All Rights Reserved.
  
 This is part of the Gaussian(R) 16 program.  It is based on
 the Gaussian(R) 09 system (copyright 2009, Gaussian, Inc.),
 the Gaussian(R) 03 system (copyright 2003, Gaussian, Inc.),
 the Gaussian(R) 98 system (copyright 1998, Gaussian, Inc.),
 the Gaussian(R) 94 system (copyright 1995, Gaussian, Inc.),
 the Gaussian 92(TM) system (copyright 1992, Gaussian, Inc.),
 the Gaussian 90(TM) system (copyright 1990, Gaussian, Inc.),
 the Gaussian 88(TM) system (copyright 1988, Gaussian, Inc.),
 the Gaussian 86(TM) system (copyright 1986, Carnegie Mellon
 University), and the Gaussian 82(TM) system (copyright 1983,
 Carnegie Mellon University). Gaussian is a federally registered
 trademark of Gaussian, Inc.
  
 This software contains proprietary and confidential information,
 including trade secrets, belonging to Gaussian, Inc.
  
 This software is provided under written license and may be
 used, copied, transmitted, or stored only in accord with that
 written license.
  
 The following legend is applicable only to US Government
 contracts under FAR:
  
                    RESTRICTED RIGHTS LEGEND
  
 Use, reproduction and disclosure by the US Government is
 subject to restrictions as set forth in subparagraphs (a)
 and (c) of the Commercial Computer Software - Restricted
 Rights clause in FAR 52.227-19.
  
 Gaussian, Inc.
 340 Quinnipiac St., Bldg. 40, Wallingford CT 06492
  
  
 ---------------------------------------------------------------
 Warning -- This program may not be used in any manner that
 competes with the business of Gaussian, Inc. or will provide
 assistance to any competitor of Gaussian, Inc.  The licensee
 of this program is prohibited from giving any competitor of
 Gaussian, Inc. access to this program.  By using this program,
 the user acknowledges that Gaussian, Inc. is engaged in the
 business of creating and licensing software in the field of
 computational chemistry and represents and warrants to the
 licensee that it is not a competitor of Gaussian, Inc. and that
 it will not use this program in any manner prohibited above.
 ---------------------------------------------------------------
  

 Cite this work as:
 Gaussian 16, Revision A.03,
 M. J. Frisch, G. W. Trucks, H. B. Schlegel, G. E. Scuseria, 
 M. A. Robb, J. R. Cheeseman, G. Scalmani, V. Barone, 
 G. A. Petersson, H. Nakatsuji, X. Li, M. Caricato, A. V. Marenich, 
 J. Bloino, B. G. Janesko, R. Gomperts, B. Mennucci, H. P. Hratchian, 
 J. V. Ortiz, A. F. Izmaylov, J. L. Sonnenberg, D. Williams-Young, 
 F. Ding, F. Lipparini, F. Egidi, J. Goings, B. Peng, A. Petrone, 
 T. Henderson, D. Ranasinghe, V. G. Zakrzewski, J. Gao, N. Rega, 
 G. Zheng, W. Liang, M. Hada, M. Ehara, K. Toyota, R. Fukuda, 
 J. Hasegawa, M. Ishida, T. Nakajima, Y. Honda, O. Kitao, H. Nakai, 
 T. Vreven, K. Throssell, J. A. Montgomery, Jr., J. E. Peralta, 
 F. Ogliaro, M. J. Bearpark, J. J. Heyd, E. N. Brothers, K. N. Kudin, 
 V. N. Staroverov, T. A. Keith, R. Kobayashi, J. Normand, 
 K. Raghavachari, A. P. Rendell, J. C. Burant, S. S. Iyengar, 
 J. Tomasi, M. Cossi, J. M. Millam, M. Klene, C. Adamo, R. Cammi, 
 J. W. Ochterski, R. L. Martin, K. Morokuma, O. Farkas, 
 J. B. Foresman, and D. J. Fox, Gaussian, Inc., Wallingford CT, 2016.
 
 ******************************************
 Gaussian 16:  ES64L-G16RevA.03 25-Dec-2016
                26-Nov-2022 
 ******************************************
 %Chk=checkpoint.chk
 %NProcShared=12
 Will use up to   12 processors via shared memory.
 ---------------------------------------------------------------
 # wB97XD Gen Opt=(QST3, Restart) SCRF=(Solvent=TetraHydroFuran)
 ---------------------------------------------------------------
 1/5=1,18=20,26=3,27=203,35=1/3(2);
 2/9=110/2;
 99//99;
 2/9=110/2;
 3/5=7,6=1,11=2,25=1,30=1,70=2205,71=1,72=20,74=-58,82=7/1,2,3;
 4/5=5,16=3,69=1/1;
 5/5=2,38=5,53=20/2;
 7//1,2,3,16;
 1/5=1,18=20,26=3,27=203/3(-5);
 2/9=110/2;
 6/7=2,8=2,9=2,10=2,19=2,28=1/1;
 99/9=1/99;

 GradGradGradGradGradGradGradGradGradGradGradGradGradGradGradGradGradGrad
 Berny optimization.
 Restoring state from the checkpoint file "checkpoint.chk".
 ONIOM results not found on unit 2.
 Title:  Mn Transition State Reactant
 Route:  # wB97XD Gen Opt=(QST3) SCRF=(Solvent=TetraHydroFuran)
 FormGI is forming the generalized inverse of G from B-inverse, IUseBI=4.
 Internal  Forces:  Max     0.002857226 RMS     0.000224722
 Search for a saddle point.
 Step number  53 out of a maximum of  366
 All quantities printed in internal units (Hartrees-Bohrs-Radians)
 Update second derivatives using D2CorX and points   52   53
 ITU=  0  0  0  0  0  0  0  0  0  0  0  0  0  0  0  0  0  0  0  0
 ITU=  0  0  0  0  0  0  0  0  0  0  0  0  0  0  0  0  0  0  0  0
 ITU=  0  0  0  0  0  0  0  0  0  0  0  0  0
     Eigenvalues ---   -0.00121   0.00033   0.00262   0.00672   0.00730
     Eigenvalues ---    0.00855   0.01104   0.01169   0.01292   0.01400
     Eigenvalues ---    0.01451   0.01507   0.01593   0.01661   0.01675
     Eigenvalues ---    0.01736   0.01796   0.01863   0.01883   0.01901
     Eigenvalues ---    0.01914   0.01952   0.01981   0.02016   0.02122
     Eigenvalues ---    0.02127   0.02140   0.02143   0.02145   0.02159
     Eigenvalues ---    0.02164   0.02167   0.02173   0.02175   0.02175
     Eigenvalues ---    0.02177   0.02181   0.02188   0.02190   0.02213
     Eigenvalues ---    0.02214   0.02223   0.02229   0.02234   0.02294
     Eigenvalues ---    0.02317   0.02386   0.02428   0.02435   0.02490
     Eigenvalues ---    0.03003   0.03120   0.03197   0.03909   0.04210
     Eigenvalues ---    0.04576   0.04871   0.05221   0.05368   0.06303
     Eigenvalues ---    0.06847   0.07117   0.07389   0.07724   0.07869
     Eigenvalues ---    0.08327   0.08878   0.09368   0.10060   0.10192
     Eigenvalues ---    0.11366   0.12441   0.13973   0.15992   0.15994
     Eigenvalues ---    0.15995   0.15995   0.15996   0.15997   0.15997
     Eigenvalues ---    0.15998   0.15999   0.16000   0.16000   0.16000
     Eigenvalues ---    0.16000   0.16000   0.16003   0.16022   0.16024
     Eigenvalues ---    0.16083   0.16132   0.16650   0.18548   0.19761
     Eigenvalues ---    0.21001   0.21139   0.21760   0.22000   0.22055
     Eigenvalues ---    0.22093   0.22126   0.22139   0.22299   0.22393
     Eigenvalues ---    0.22908   0.23305   0.23451   0.23472   0.23538
     Eigenvalues ---    0.23651   0.23773   0.23863   0.24298   0.24900
     Eigenvalues ---    0.24950   0.25010   0.26477   0.26511   0.27775
     Eigenvalues ---    0.28133   0.32767   0.33287   0.33501   0.34435
     Eigenvalues ---    0.34443   0.34470   0.34490   0.34491   0.34492
     Eigenvalues ---    0.34492   0.34495   0.34523   0.34527   0.34534
     Eigenvalues ---    0.34541   0.34547   0.34577   0.34656   0.34656
     Eigenvalues ---    0.34983   0.35049   0.37330   0.38213   0.39368
     Eigenvalues ---    0.39949   0.40569   0.41515   0.41641   0.42046
     Eigenvalues ---    0.42081   0.43691   0.43763   0.43999   0.44646
     Eigenvalues ---    0.45025   0.45803   0.45845   0.45854   0.45962
     Eigenvalues ---    0.46200   0.46266   0.46445   0.46507   0.47022
     Eigenvalues ---    0.47030   0.47115   0.47266   0.47333   0.55007
     Eigenvalues ---    0.55155   0.56549   0.57593   1.21892   1.27434
     Eigenvalues ---    1.35208   1.378211000.000001000.000001000.00000
     Eigenvalues --- 1000.000001000.000001000.000001000.000001000.00000
     Eigenvalues --- 1000.000001000.000001000.000001000.000001000.00000
     Eigenvalues --- 1000.000001000.000001000.000001000.000001000.00000
     Eigenvalues --- 1000.000001000.000001000.000001000.000001000.00000
     Eigenvalues --- 1000.000001000.000001000.000001000.000001000.00000
     Eigenvalues --- 1000.000001000.000001000.000001000.000001000.00000
     Eigenvalues --- 1000.000001000.000001000.000001000.000001000.00000
     Eigenvalues --- 1000.000001000.000001000.000001000.000001000.00000
     Eigenvalues --- 1000.000001000.000001000.000001000.000001000.00000
     Eigenvalues --- 1000.000001000.000001000.000001000.000001000.00000
     Eigenvalues --- 1000.000001000.000001000.000001000.000001000.00000
     Eigenvalues --- 1000.000001000.000001000.000001000.000001000.00000
     Eigenvalues --- 1000.000001000.000001000.000001000.000001000.00000
     Eigenvalues --- 1000.000001000.000001000.000001000.000001000.00000
     Eigenvalues --- 1000.000001000.000001000.000001000.000001000.00000
     Eigenvalues --- 1000.000001000.000001000.000001000.000001000.00000
     Eigenvalues --- 1000.000001000.000001000.000001000.000001000.00000
     Eigenvalues --- 1000.000001000.000001000.000001000.000001000.00000
     Eigenvalues --- 1000.000001000.000001000.000001000.000001000.00000
     Eigenvalues --- 1000.000001000.000001000.000001000.000001000.00000
     Eigenvalues --- 1000.000001000.000001000.000001000.000001000.00000
     Eigenvalues --- 1000.000001000.000001000.000001000.000001000.00000
     Eigenvalues --- 1000.000001000.000001000.000001000.000001000.00000
     Eigenvalues --- 1000.000001000.000001000.000001000.000001000.00000
     Eigenvalues --- 1000.000001000.000001000.000001000.000001000.00000
     Eigenvalues --- 1000.000001000.000001000.000001000.000001000.00000
     Eigenvalues --- 1000.000001000.000001000.000001000.000001000.00000
     Eigenvalues --- 1000.000001000.000001000.000001000.000001000.00000
     Eigenvalues --- 1000.000001000.000001000.000001000.000001000.00000
     Eigenvalues --- 1000.000001000.000001000.000001000.000001000.00000
     Eigenvalues --- 1000.000001000.000001000.000001000.000001000.00000
     Eigenvalues --- 1000.000001000.000001000.000001000.000001000.00000
     Eigenvalues --- 1000.000001000.000001000.000001000.000001000.00000
     Eigenvalues --- 1000.000001000.000001000.000001000.000001000.00000
     Eigenvalues --- 1000.000001000.000001000.000001000.000001000.00000
     Eigenvalues --- 1000.000001000.000001000.000001000.000001000.00000
     Eigenvalues --- 1000.000001000.000001000.000001000.000001000.00000
     Eigenvalues --- 1000.000001000.000001000.000001000.000001000.00000
     Eigenvalues --- 1000.000001000.000001000.000001000.000001000.00000
     Eigenvalues --- 1000.000001000.000001000.000001000.000001000.00000
     Eigenvalues --- 1000.000001000.000001000.000001000.000001000.00000
     Eigenvalues --- 1000.000001000.000001000.000001000.000001000.00000
     Eigenvalues --- 1000.000001000.000001000.000001000.000001000.00000
     Eigenvalues --- 1000.000001000.000001000.000001000.000001000.00000
     Eigenvalues --- 1000.000001000.000001000.000001000.000001000.00000
     Eigenvalues --- 1000.000001000.000001000.000001000.000001000.00000
     Eigenvalues --- 1000.000001000.00000
 Eigenvectors required to have negative eigenvalues:
                          R10       R7        R5        R9        R12
   1                    0.37309   0.36040  -0.34209   0.26093   0.24155
                         D105       R33       D89       D93       D32
   1                   -0.18393  -0.16648   0.16470   0.16376  -0.15971
 QST in optimization variable space.
                        Tangent   TS vect  // Eig F  Eigenval
   1         R1         0.01589  -0.00238   0.00007  -0.00121
   2         R2         0.01276  -0.00516  -0.00030   0.00033
   3         R3        -0.00858   0.00143   0.00013   0.00262
   4         R4        -0.02680  -0.00653  -0.00011   0.00672
   5         R5         0.48435  -0.34209  -0.00003   0.00730
   6         R6        -0.02542   0.00509  -0.00028   0.00855
   7         R7        -0.11478   0.36040  -0.00008   0.01104
   8         R8         0.00713   0.00010   0.00032   0.01169
   9         R9        -0.16538   0.26093  -0.00002   0.01292
  10         R10       -0.26798   0.37309  -0.00012   0.01400
  11         R11       -0.00048   0.00040  -0.00003   0.01451
  12         R12       -0.27171   0.24155  -0.00002   0.01507
  13         R13        0.00068   0.00003  -0.00013   0.01593
  14         R14        0.00014  -0.00018   0.00009   0.01661
  15         R15        0.00065  -0.00036   0.00002   0.01675
  16         R16        0.00125   0.00004  -0.00005   0.01736
  17         R17        0.00002  -0.00006   0.00004   0.01796
  18         R18        0.00100  -0.00048  -0.00037   0.01863
  19         R19       -0.00015   0.00002  -0.00026   0.01883
  20         R20        0.00062  -0.00036   0.00000   0.01901
  21         R21       -0.00069  -0.00020  -0.00002   0.01914
  22         R22        0.00014  -0.00036   0.00013   0.01952
  23         R23        0.00943  -0.00079   0.00030   0.01981
  24         R24        0.00932  -0.00232  -0.00001   0.02016
  25         R25        0.00280  -0.00337   0.00000   0.02122
  26         R26       -0.00063   0.00163   0.00002   0.02127
  27         R27       -0.00216  -0.00012   0.00001   0.02140
  28         R28       -0.00757   0.00257  -0.00001   0.02143
  29         R29       -0.00011  -0.00004   0.00001   0.02145
  30         R30        0.00057   0.00089   0.00003   0.02159
  31         R31       -0.00023  -0.00004  -0.00006   0.02164
  32         R32        0.00260   0.00033  -0.00006   0.02167
  33         R33        0.12223  -0.16648  -0.00004   0.02173
  34         R34        0.00057   0.00002  -0.00001   0.02175
  35         R35        0.00020  -0.00011  -0.00003   0.02175
  36         R36        0.00126   0.00077  -0.00002   0.02177
  37         R37       -0.00003  -0.00021  -0.00000   0.02181
  38         R38        0.00096   0.00028  -0.00000   0.02188
  39         R39        0.00059   0.00023   0.00003   0.02190
  40         R40       -0.00014   0.00003  -0.00002   0.02213
  41         R41        0.00115  -0.00088  -0.00000   0.02214
  42         R42        0.00092  -0.00274   0.00001   0.02223
  43         R43        0.00104   0.00036   0.00004   0.02229
  44         R44        0.00091  -0.00065   0.00002   0.02234
  45         R45        0.00140  -0.00015  -0.00007   0.02294
  46         R46        0.00147   0.00018  -0.00012   0.02317
  47         R47       -0.00015  -0.00083  -0.00008   0.02386
  48         R48       -0.00037  -0.00024   0.00000   0.02428
  49         R49        0.00018  -0.00015  -0.00012   0.02435
  50         R50        0.00040   0.00004   0.00010   0.02490
  51         R51       -0.00026   0.00007   0.00032   0.03003
  52         R52        0.00036   0.00026  -0.00006   0.03120
  53         R53       -0.00018   0.00000   0.00031   0.03197
  54         R54        0.00021   0.00038  -0.00028   0.03909
  55         R55       -0.00014  -0.00009  -0.00004   0.04210
  56         R56       -0.00023  -0.00056   0.00001   0.04576
  57         R57       -0.00011   0.00034   0.00020   0.04871
  58         R58        0.00031   0.00063   0.00007   0.05221
  59         R59        0.00014   0.00005  -0.00040   0.05368
  60         R60        0.00034   0.00008  -0.00017   0.06303
  61         R61       -0.00016  -0.00003  -0.00071   0.06847
  62         R62        0.00033  -0.00024   0.00031   0.07117
  63         R63       -0.00020   0.00003  -0.00009   0.07389
  64         R64       -0.00020   0.00049  -0.00095   0.07724
  65         R65       -0.00025   0.00006   0.00077   0.07869
  66         R66       -0.00006   0.00035   0.00032   0.08327
  67         R67       -0.00065  -0.00112  -0.00009   0.08878
  68         R68        0.00013  -0.00068  -0.00029   0.09368
  69         R69        0.00149  -0.00030   0.00015   0.10060
  70         R70       -0.00025   0.00009   0.00005   0.10192
  71         R71       -0.00012   0.00012   0.00022   0.11366
  72         A1        -0.01321  -0.00667   0.00000   0.12441
  73         A2        -0.00878   0.01212   0.00026   0.13973
  74         A3         0.00383  -0.00226   0.00003   0.15992
  75         A4         0.00698   0.01722   0.00002   0.15994
  76         A5        -0.06964   0.06185   0.00002   0.15995
  77         A6         0.00257  -0.00012   0.00001   0.15995
  78         A7        -0.08358   0.06905  -0.00002   0.15996
  79         A8        -0.01135   0.00453  -0.00004   0.15997
  80         A9         0.01704   0.00441   0.00001   0.15997
  81         A10       -0.09496   0.08076  -0.00001   0.15998
  82         A11       -0.01065  -0.00679  -0.00001   0.15999
  83         A12       -0.00144   0.00742  -0.00000   0.16000
  84         A13       -0.08655   0.07279   0.00005   0.16000
  85         A14        0.01641   0.00479   0.00001   0.16000
  86         A15       -0.07842   0.07398  -0.00000   0.16000
  87         A16       -0.15847   0.14534  -0.00006   0.16000
  88         A17        0.01307  -0.01253  -0.00022   0.16003
  89         A18       -0.09236   0.08118   0.00011   0.16022
  90         A19       -0.10594   0.08186  -0.00007   0.16024
  91         A20        0.08332  -0.09340   0.00003   0.16083
  92         A21       -0.00737   0.00134  -0.00023   0.16132
  93         A22        0.07990  -0.08881  -0.00076   0.16650
  94         A23        0.10016  -0.09076  -0.00047   0.18548
  95         A24        0.01119  -0.01552  -0.00044   0.19761
  96         A25        0.01141  -0.01558   0.00010   0.21001
  97         A26        0.00260  -0.00521   0.00079   0.21139
  98         A27        0.00234  -0.00491   0.00056   0.21760
  99         A28        0.06747  -0.07632  -0.00004   0.22000
 100         A29        0.00924  -0.01393  -0.00009   0.22055
 101         A30        0.00365   0.00331  -0.00007   0.22093
 102         A31        0.00956  -0.01666  -0.00016   0.22126
 103         A32       -0.00408  -0.00251   0.00003   0.22139
 104         A33        0.10028  -0.07406   0.00012   0.22299
 105         A34       -0.09104   0.06013  -0.00008   0.22393
 106         A35       -0.00030   0.01268  -0.00003   0.22908
 107         A36        0.00062   0.00820  -0.00044   0.23305
 108         A37       -0.00083   0.00670   0.00013   0.23451
 109         A38       -0.00260  -0.00549  -0.00001   0.23472
 110         A39        0.00272  -0.00122  -0.00005   0.23538
 111         A40       -0.00014   0.00044   0.00018   0.23651
 112         A41        0.00043  -0.00005   0.00004   0.23773
 113         A42       -0.00021  -0.00055   0.00018   0.23863
 114         A43       -0.00026   0.00018  -0.00018   0.24298
 115         A44        0.00011  -0.00071  -0.00006   0.24900
 116         A45        0.00014   0.00047   0.00009   0.24950
 117         A46       -0.00133   0.00048  -0.00065   0.25010
 118         A47       -0.00025   0.00041  -0.00001   0.26477
 119         A48        0.00151  -0.00093  -0.00028   0.26511
 120         A49       -0.11432   0.07335   0.00001   0.27775
 121         A50       -0.02916   0.04995  -0.00018   0.28133
 122         A51        0.01060  -0.00235   0.00003   0.32767
 123         A52        0.00545  -0.00814  -0.00009   0.33287
 124         A53        0.05858   0.05540   0.00106   0.33501
 125         A54        0.03345   0.03186   0.00000   0.34435
 126         A55       -0.00116  -0.00410   0.00001   0.34443
 127         A56        0.00781   0.00192   0.00001   0.34470
 128         A57       -0.00663   0.00216   0.00004   0.34490
 129         A58        0.00908  -0.00250  -0.00001   0.34491
 130         A59       -0.02138   0.00062   0.00003   0.34492
 131         A60        0.01229   0.00187  -0.00004   0.34492
 132         A61        0.00311  -0.00160  -0.00001   0.34495
 133         A62       -0.00471   0.00196  -0.00016   0.34523
 134         A63        0.00159  -0.00036   0.00002   0.34527
 135         A64       -0.00040   0.00040  -0.00000   0.34534
 136         A65        0.00051   0.00002  -0.00002   0.34541
 137         A66       -0.00011  -0.00041   0.00000   0.34547
 138         A67        0.00645  -0.01293  -0.00001   0.34577
 139         A68        0.06780  -0.06047  -0.00001   0.34656
 140         A69       -0.03693   0.05593   0.00000   0.34656
 141         A70        0.01427  -0.02262   0.00005   0.34983
 142         A71        0.07953  -0.07023  -0.00000   0.35049
 143         A72       -0.03574   0.04640  -0.00139   0.37330
 144         A73        0.03250  -0.03049  -0.00013   0.38213
 145         A74       -0.02672   0.06768  -0.00036   0.39368
 146         A75       -0.01310   0.05969   0.00011   0.39949
 147         A76       -0.00327   0.00854   0.00002   0.40569
 148         A77        0.00028  -0.00673   0.00012   0.41515
 149         A78        0.00265  -0.00113  -0.00012   0.41641
 150         A79       -0.00024   0.00024   0.00028   0.42046
 151         A80        0.00045   0.00019  -0.00010   0.42081
 152         A81       -0.00013  -0.00035  -0.00009   0.43691
 153         A82        0.00030   0.00007  -0.00017   0.43763
 154         A83       -0.00063   0.00019   0.00007   0.43999
 155         A84        0.00033  -0.00019   0.00013   0.44646
 156         A85       -0.00238   0.00102  -0.00047   0.45025
 157         A86        0.00061   0.00323   0.00006   0.45803
 158         A87        0.00161  -0.00445   0.00001   0.45845
 159         A88       -0.00241  -0.00004   0.00001   0.45854
 160         A89        0.00060   0.00120   0.00010   0.45962
 161         A90        0.00170  -0.00065  -0.00008   0.46200
 162         A91        0.00193   0.00079   0.00007   0.46266
 163         A92        0.00154   0.00084   0.00017   0.46445
 164         A93        0.00032   0.00041  -0.00021   0.46507
 165         A94        0.00293   0.00200   0.00003   0.47022
 166         A95       -0.00369  -0.00298  -0.00003   0.47030
 167         A96        0.00383   0.00283  -0.00003   0.47115
 168         A97       -0.00390  -0.00349  -0.00000   0.47266
 169         A98       -0.00002   0.00066  -0.00005   0.47333
 170         A99       -0.00099  -0.00035  -0.00003   0.55007
 171         A100       0.00090   0.00003   0.00018   0.55155
 172         A101       0.00010   0.00032  -0.00011   0.56549
 173         A102       0.00098  -0.00021   0.00007   0.57593
 174         A103      -0.00041   0.00002  -0.00297   1.21892
 175         A104      -0.00058   0.00018  -0.00122   1.27434
 176         A105      -0.00014   0.00018   0.00005   1.35208
 177         A106      -0.00079  -0.00004   0.00003   1.37821
 178         A107       0.00093  -0.00014  -0.000001000.00000
 179         A108       0.00126   0.00043   0.000001000.00000
 180         A109      -0.00018  -0.00031  -0.000001000.00000
 181         A110      -0.00102  -0.00008  -0.000001000.00000
 182         A111       0.00134   0.00014  -0.000001000.00000
 183         A112      -0.00242   0.00015  -0.000001000.00000
 184         A113       0.00118  -0.00026   0.000001000.00000
 185         A114      -0.00273  -0.00075   0.000001000.00000
 186         A115       0.00172   0.00067   0.000001000.00000
 187         A116       0.00105  -0.00005   0.000001000.00000
 188         A117       0.00003   0.00039  -0.000001000.00000
 189         A118       0.00081  -0.00072   0.000001000.00000
 190         A119      -0.00078   0.00032  -0.000001000.00000
 191         A120      -0.00024  -0.00010   0.000001000.00000
 192         A121       0.00099  -0.00003  -0.000001000.00000
 193         A122      -0.00075   0.00013   0.000001000.00000
 194         A123       0.00080  -0.00018  -0.000001000.00000
 195         A124      -0.00046   0.00019  -0.000001000.00000
 196         A125      -0.00036  -0.00002   0.000001000.00000
 197         A126      -0.00062   0.00073   0.000001000.00000
 198         A127      -0.00015  -0.00050   0.000001000.00000
 199         A128       0.00078  -0.00029  -0.000001000.00000
 200         A129      -0.00036  -0.00067  -0.000001000.00000
 201         A130      -0.00195   0.00505  -0.000001000.00000
 202         A131       0.00223  -0.00450  -0.000001000.00000
 203         A132       0.00293   0.00171   0.000001000.00000
 204         A133       0.00004  -0.00111   0.000001000.00000
 205         A134      -0.00306  -0.00024  -0.000001000.00000
 206         A135      -0.00104   0.00219  -0.000001000.00000
 207         A136      -0.00029  -0.00007   0.000001000.00000
 208         A137       0.00130  -0.00204   0.000001000.00000
 209         A138      -0.00063  -0.00004  -0.000001000.00000
 210         A139       0.00004   0.00015  -0.000001000.00000
 211         A140       0.00059  -0.00011   0.000001000.00000
 212         A141       0.00239  -0.00160  -0.000001000.00000
 213         A142      -0.00150   0.00133  -0.000001000.00000
 214         A143      -0.00089   0.00027  -0.000001000.00000
 215         A144       0.02422  -0.05489  -0.000001000.00000
 216         D1        -0.10312   0.07982  -0.000001000.00000
 217         D2        -0.11472   0.08490   0.000001000.00000
 218         D3        -0.00878   0.00304   0.000001000.00000
 219         D4         0.07794  -0.09345  -0.000001000.00000
 220         D5         0.08708  -0.10581   0.000001000.00000
 221         D6         0.07096  -0.11067  -0.000001000.00000
 222         D7        -0.01393  -0.02016   0.000001000.00000
 223         D8        -0.02742  -0.02856  -0.000001000.00000
 224         D9        -0.03414  -0.02883   0.000001000.00000
 225         D10       -0.01856  -0.03382  -0.000001000.00000
 226         D11       -0.02529  -0.03409   0.000001000.00000
 227         D12       -0.15549   0.09911   0.000001000.00000
 228         D13       -0.16222   0.09884  -0.000001000.00000
 229         D14       -0.02983  -0.02102   0.000001000.00000
 230         D15       -0.03656  -0.02130  -0.000001000.00000
 231         D16       -0.12322   0.04738   0.000001000.00000
 232         D17       -0.12995   0.04711   0.000001000.00000
 233         D18        0.05739  -0.09062   0.000001000.00000
 234         D19        0.13645  -0.12481   0.000001000.00000
 235         D20        0.00463  -0.01463   0.000001000.00000
 236         D21        0.08370  -0.04883   0.000001000.00000
 237         D22        0.04212  -0.09217  -0.000001000.00000
 238         D23        0.12119  -0.12637  -0.000001000.00000
 239         D24        0.00616  -0.03837   0.000001000.00000
 240         D25        0.08523  -0.07256   0.000001000.00000
 241         D26        0.01781  -0.05279  -0.000001000.00000
 242         D27        0.01471  -0.04622  -0.000001000.00000
 243         D28        0.00930  -0.04062  -0.000001000.00000
 244         D29        0.00620  -0.03405  -0.000001000.00000
 245         D30        0.02422  -0.03487  -0.000001000.00000
 246         D31        0.02112  -0.02830  -0.000001000.00000
 247         D32        0.13585  -0.15971  -0.000001000.00000
 248         D33        0.13275  -0.15314  -0.000001000.00000
 249         D34        0.00989   0.03898  -0.000001000.00000
 250         D35        0.04851   0.02483   0.000001000.00000
 251         D36       -0.00501   0.05350  -0.000001000.00000
 252         D37       -0.12940   0.04872   0.000001000.00000
 253         D38       -0.13810   0.04718  -0.000001000.00000
 254         D39        0.01705  -0.02882   0.000001000.00000
 255         D40        0.08951  -0.07866  -0.000001000.00000
 256         D41        0.02472   0.03159  -0.000001000.00000
 257         D42        0.00084   0.00941  -0.000001000.00000
 258         D43        0.00097   0.01321   0.000001000.00000
 259         D44        0.09145  -0.05841   0.000001000.00000
 260         D45        0.02892   0.02408   0.000001000.00000
 261         D46        0.00492   0.01191  -0.000001000.00000
 262         D47        0.00505   0.01572  -0.000001000.00000
 263         D48        0.09553  -0.05590  -0.000001000.00000
 264         D49        0.03300   0.02659   0.000001000.00000
 265         D50       -0.00869  -0.00109  -0.000001000.00000
 266         D51       -0.00436   0.00107   0.000001000.00000
 267         D52       -0.00162  -0.00053  -0.000001000.00000
 268         D53        0.00271   0.00163  -0.000001000.00000
 269         D54        0.00642  -0.00127   0.000001000.00000
 270         D55        0.00180  -0.00711   0.000001000.00000
 271         D56       -0.00025  -0.00096   0.000001000.00000
 272         D57       -0.00487  -0.00680  -0.000001000.00000
 273         D58       -0.00138   0.00113  -0.000001000.00000
 274         D59       -0.00101   0.00391  -0.000001000.00000
 275         D60        0.00131  -0.00476  -0.000001000.00000
 276         D61        0.00168  -0.00197  -0.000001000.00000
 277         D62        0.00017   0.00222  -0.000001000.00000
 278         D63        0.00498   0.00809  -0.000001000.00000
 279         D64        0.00281  -0.00352   0.000001000.00000
 280         D65        0.00761   0.00234  -0.000001000.00000
 281         D66       -0.00342   0.00060  -0.000001000.00000
 282         D67       -0.01246  -0.01098   0.000001000.00000
 283         D68       -0.00304   0.00338   0.000001000.00000
 284         D69       -0.01209  -0.00821  -0.000001000.00000
 285         D70        0.00345   0.00072   0.000001000.00000
 286         D71        0.01176   0.01148  -0.000001000.00000
 287         D72       -0.00097  -0.00146  -0.000001000.00000
 288         D73        0.00735   0.00931   0.000001000.00000
 289         D74       -0.00745  -0.00404  -0.000001000.00000
 290         D75       -0.00781  -0.00491  -0.000001000.00000
 291         D76       -0.00426  -0.00588  -0.000001000.00000
 292         D77       -0.00462  -0.00675   0.000001000.00000
 293         D78        0.00313   0.00160   0.000001000.00000
 294         D79        0.00461   0.00500  -0.000001000.00000
 295         D80       -0.00001   0.00347  -0.000001000.00000
 296         D81        0.00146   0.00688  -0.000001000.00000
 297         D82        0.00129   0.00050   0.000001000.00000
 298         D83        0.00430   0.00130  -0.000001000.00000
 299         D84        0.00201   0.00141   0.000001000.00000
 300         D85        0.00502   0.00221   0.000001000.00000
 301         D86       -0.06076   0.02520   0.000001000.00000
 302         D87       -0.04621   0.01043  -0.000001000.00000
 303         D88       -0.04951   0.02474   0.000001000.00000
 304         D89       -0.18210   0.16470  -0.000001000.00000
 305         D90       -0.06117   0.02426   0.000001000.00000
 306         D91       -0.04662   0.00949  -0.000001000.00000
 307         D92       -0.04992   0.02380  -0.000001000.00000
 308         D93       -0.18251   0.16376   0.000001000.00000
 309         D94       -0.00160   0.00225   0.000001000.00000
 310         D95       -0.00231  -0.00011  -0.000001000.00000
 311         D96        0.00144   0.00305  -0.000001000.00000
 312         D97        0.00072   0.00069   0.000001000.00000
 313         D98        0.00131  -0.00329  -0.000001000.00000
 314         D99        0.00011  -0.00339  -0.000001000.00000
 315         D100       0.00279   0.00013  -0.000001000.00000
 316         D101       0.00159   0.00004   0.000001000.00000
 317         D102      -0.02072   0.01938   0.000001000.00000
 318         D103      -0.03348   0.02810  -0.000001000.00000
 319         D104      -0.00796  -0.01805  -0.000001000.00000
 320         D105       0.14316  -0.18393   0.000001000.00000
 321         D106      -0.00302  -0.00141  -0.000001000.00000
 322         D107       0.00074  -0.01832  -0.000001000.00000
 323         D108       0.00008  -0.00725  -0.000001000.00000
 324         D109       0.00384  -0.02416   0.000001000.00000
 325         D110       0.00349  -0.00607   0.000001000.00000
 326         D111       0.00033   0.00241  -0.000001000.00000
 327         D112       0.00000   0.00113  -0.000001000.00000
 328         D113      -0.00316   0.00961  -0.000001000.00000
 329         D114       0.00124   0.00488   0.000001000.00000
 330         D115       0.00086   0.00012  -0.000001000.00000
 331         D116      -0.00239   0.00096   0.000001000.00000
 332         D117      -0.00277  -0.00381   0.000001000.00000
 333         D118       0.00114   0.00627   0.000001000.00000
 334         D119      -0.00278   0.02378   0.000001000.00000
 335         D120      -0.00243   0.00241   0.000001000.00000
 336         D121      -0.00634   0.01993   0.000001000.00000
 337         D122       0.00704  -0.02346   0.000001000.00000
 338         D123       0.00246  -0.00664  -0.000001000.00000
 339         D124       0.00741  -0.01871  -0.000001000.00000
 340         D125       0.00283  -0.00189   0.000001000.00000
 341         D126       0.00521   0.00099  -0.000001000.00000
 342         D127       0.00303   0.00021  -0.000001000.00000
 343         D128      -0.00446   0.00013  -0.000001000.00000
 344         D129      -0.00536   0.00254  -0.000001000.00000
 345         D130      -0.00122   0.00023  -0.000001000.00000
 346         D131       0.00072   0.00127  -0.000001000.00000
 347         D132      -0.00220  -0.00109   0.000001000.00000
 348         D133      -0.00057  -0.00147   0.000001000.00000
 349         D134       0.03489   0.02217  -0.000001000.00000
 350         D135       0.03099   0.02226  -0.000001000.00000
 351         D136       0.02592   0.01063   0.000001000.00000
 352         D137       0.02202   0.01072  -0.000001000.00000
 353         D138      -0.00385  -0.00095  -0.000001000.00000
 354         D139      -0.00393  -0.00094  -0.000001000.00000
 355         D140       0.00009  -0.00097   0.000001000.00000
 356         D141       0.00001  -0.00096  -0.000001000.00000
 357         D142       0.00248   0.00015   0.000001000.00000
 358         D143       0.00456   0.00095   0.000001000.00000
 359         D144      -0.00126   0.00028   0.000001000.00000
 360         D145       0.00081   0.00108  -0.000001000.00000
 361         D146      -0.00048   0.00010  -0.000001000.00000
 362         D147      -0.00001   0.00081  -0.000001000.00000
 363         D148      -0.00039   0.00009   0.000001000.00000
 364         D149       0.00008   0.00080  -0.000001000.00000
 365         D150       0.00001   0.00066   0.000001000.00000
 366         D151       0.00044   0.00017  -0.000001000.00000
 367         D152      -0.00045  -0.00004  -0.000001000.00000
 368         D153      -0.00003  -0.00054   0.000001000.00000
 369         D154       0.00282   0.00047   0.000001000.00000
 370         D155       0.00088  -0.00056   0.000001000.00000
 371         D156       0.00241   0.00096   0.000001000.00000
 372         D157       0.00047  -0.00006  -0.000001000.00000
 373         D158      -0.00108  -0.00057   0.000001000.00000
 374         D159      -0.00327  -0.00136   0.000001000.00000
 375         D160       0.00092   0.00049   0.000001000.00000
 376         D161      -0.00127  -0.00031  -0.000001000.00000
 377         D162       0.00381   0.00067  -0.000001000.00000
 378         D163       0.00213   0.00108  -0.000001000.00000
 379         D164       0.00473  -0.00172  -0.000001000.00000
 380         D165       0.00306  -0.00131  -0.000001000.00000
 381         D166      -0.00214  -0.00132   0.000001000.00000
 382         D167      -0.00570  -0.00654  -0.000001000.00000
 383         D168      -0.00291   0.00112   0.000001000.00000
 384         D169      -0.00647  -0.00410   0.000001000.00000
 385         D170      -0.00252   0.00090  -0.000001000.00000
 386         D171      -0.00246   0.00153   0.000001000.00000
 387         D172      -0.00089   0.00052   0.000001000.00000
 388         D173      -0.00082   0.00115   0.000001000.00000
 389         D174      -0.00144   0.00051  -0.000001000.00000
 390         D175      -0.00062   0.00071  -0.000001000.00000
 391         D176      -0.00152  -0.00014  -0.000001000.00000
 392         D177      -0.00070   0.00007   0.000001000.00000
 393         D178       0.00158  -0.00072   0.000001000.00000
 394         D179       0.00115   0.00251   0.000001000.00000
 395         D180       0.00076  -0.00093  -0.000001000.00000
 396         D181       0.00033   0.00230   0.000001000.00000
 397         D182       0.00056  -0.00009  -0.000001000.00000
 398         D183       0.00420   0.00499  -0.000001000.00000
 399         D184       0.00098  -0.00329  -0.000001000.00000
 400         D185       0.00461   0.00179  -0.000001000.00000
 401         D186      -0.01435   0.03703  -0.000001000.00000
 402         D187      -0.00978   0.02007   0.000001000.00000
 403         D188      -0.01801   0.03179  -0.000001000.00000
 404         D189      -0.01343   0.01483  -0.000001000.00000
 405         D190      -0.00126   0.00580   0.000001000.00000
 406         D191       0.00196  -0.00283  -0.000001000.00000
 407         D192      -0.00551   0.02180   0.000001000.00000
 408         D193      -0.00229   0.01317  -0.000001000.00000
 409         D194      -0.00126  -0.00124   0.000001000.00000
 410         D195      -0.00005  -0.00114  -0.000001000.00000
 411         D196      -0.00054   0.00111  -0.000001000.00000
 412         D197       0.00067   0.00121   0.000001000.00000
 RFO step:  Lambda0=3.835867964D-06 Lambda=-2.70446111D-04.
 Linear search not attempted -- option 19 set.
 Maximum step size (   0.300) exceeded in Quadratic search.
    -- Step size scaled by   0.983
 Iteration  1 RMS(Cart)=  0.10606039 RMS(Int)=  0.00188983
 Iteration  2 RMS(Cart)=  0.00455095 RMS(Int)=  0.00050654
 Iteration  3 RMS(Cart)=  0.00000403 RMS(Int)=  0.00050654
 Iteration  4 RMS(Cart)=  0.00000000 RMS(Int)=  0.00050654
 Variable       Old X    -DE/DX   Delta X   Delta X   Delta X     New X
                                 (Linear)    (Quad)   (Total)
    R1        3.50015  -0.00026   0.00000  -0.00035   0.00113   3.50129
    R2        3.48943  -0.00007   0.00000  -0.00019  -0.00047   3.48895
    R3        3.38072  -0.00005   0.00000  -0.00007  -0.00007   3.38065
    R4        3.92080   0.00048   0.00000   0.00544   0.00535   3.92615
    R5        6.93786   0.00051   0.00000   0.09541   0.09663   7.03449
    R6        3.94921   0.00004   0.00000  -0.00093  -0.00098   3.94823
    R7        8.53137   0.00033   0.00000  -0.04082  -0.04036   8.49102
    R8        2.15319  -0.00126   0.00000  -0.00098  -0.00035   2.15285
    R9       11.45160  -0.00043   0.00000   0.00849   0.00675  11.45834
   R10       12.26803  -0.00039   0.00000   0.09039   0.08996  12.35800
   R11        2.15364   0.00003   0.00000   0.00005   0.00005   2.15369
   R12       10.56594  -0.00058   0.00000  -0.21513  -0.21584  10.35010
   R13        2.16546   0.00005   0.00000  -0.00008  -0.00008   2.16538
   R14        2.52629   0.00005   0.00000   0.00007   0.00002   2.52631
   R15        2.53777   0.00011   0.00000   0.00050   0.00047   2.53824
   R16        2.63082  -0.00006   0.00000  -0.00037  -0.00033   2.63048
   R17        2.05974  -0.00000   0.00000   0.00006   0.00006   2.05980
   R18        2.62486  -0.00010   0.00000  -0.00013  -0.00012   2.62474
   R19        2.06335   0.00001   0.00000   0.00004   0.00004   2.06340
   R20        2.63793  -0.00017   0.00000  -0.00052  -0.00049   2.63744
   R21        2.63145   0.00027   0.00000   0.00067   0.00056   2.63201
   R22        2.06136   0.00006   0.00000   0.00052   0.00052   2.06188
   R23        2.19050  -0.00286   0.00000  -0.00191  -0.00040   2.19010
   R24        2.72311  -0.00096   0.00000  -0.00240  -0.00089   2.72222
   R25        2.65353  -0.00054   0.00000  -0.00123  -0.00024   2.65329
   R26        2.65118   0.00010   0.00000  -0.00010  -0.00002   2.65116
   R27        2.62963   0.00000   0.00000  -0.00052  -0.00067   2.62896
   R28        2.06313   0.00050   0.00000   0.00138   0.00072   2.06385
   R29        2.06259  -0.00002   0.00000  -0.00006  -0.00006   2.06253
   R30        2.63710   0.00017   0.00000   0.00066   0.00058   2.63768
   R31        2.06222  -0.00001   0.00000  -0.00004  -0.00004   2.06218
   R32        2.62953  -0.00004   0.00000   0.00011   0.00025   2.62978
   R33        5.45449  -0.00031   0.00000  -0.03035  -0.02929   5.42520
   R34        2.53784   0.00008   0.00000   0.00055   0.00054   2.53838
   R35        2.52655   0.00020   0.00000   0.00046   0.00043   2.52698
   R36        2.63018   0.00003   0.00000   0.00018   0.00019   2.63037
   R37        2.05959  -0.00001   0.00000  -0.00006  -0.00006   2.05953
   R38        2.62422  -0.00006   0.00000  -0.00004  -0.00005   2.62417
   R39        2.63747  -0.00004   0.00000  -0.00013  -0.00012   2.63735
   R40        2.06348   0.00001   0.00000   0.00007   0.00007   2.06355
   R41        2.06752  -0.00017   0.00000   0.00016   0.00016   2.06768
   R42        2.06517   0.00002   0.00000   0.00069   0.00069   2.06586
   R43        3.36075  -0.00015   0.00000  -0.00059  -0.00051   3.36025
   R44        3.36042  -0.00015   0.00000  -0.00084  -0.00071   3.35971
   R45        3.35896  -0.00007   0.00000  -0.00043  -0.00045   3.35851
   R46        3.35854  -0.00007   0.00000  -0.00024  -0.00026   3.35827
   R47        2.81749  -0.00008   0.00000  -0.00034  -0.00033   2.81716
   R48        2.64015   0.00000   0.00000  -0.00033  -0.00032   2.63983
   R49        2.66004  -0.00038   0.00000  -0.00156  -0.00145   2.65859
   R50        2.63393   0.00000   0.00000   0.00027   0.00024   2.63418
   R51        2.06325   0.00000   0.00000  -0.00003  -0.00003   2.06322
   R52        2.63121  -0.00002   0.00000   0.00006   0.00003   2.63124
   R53        2.06237   0.00000   0.00000   0.00002   0.00002   2.06239
   R54        2.64027   0.00004   0.00000   0.00015   0.00015   2.64042
   R55        2.06326  -0.00002   0.00000  -0.00009  -0.00009   2.06317
   R56        2.64713  -0.00009   0.00000  -0.00059  -0.00056   2.64657
   R57        2.64761   0.00003   0.00000   0.00028   0.00030   2.64792
   R58        2.65989  -0.00016   0.00000  -0.00039  -0.00026   2.65963
   R59        2.64007   0.00003   0.00000   0.00006   0.00006   2.64013
   R60        2.63085   0.00004   0.00000   0.00005   0.00002   2.63088
   R61        2.06316  -0.00001   0.00000  -0.00003  -0.00003   2.06313
   R62        2.63319  -0.00001   0.00000  -0.00010  -0.00013   2.63307
   R63        2.06230   0.00000   0.00000   0.00001   0.00001   2.06231
   R64        2.64127   0.00001   0.00000   0.00018   0.00018   2.64145
   R65        2.06341  -0.00001   0.00000  -0.00004  -0.00004   2.06337
   R66        2.81676  -0.00006   0.00000  -0.00032  -0.00034   2.81642
   R67        2.63335   0.00013   0.00000   0.00032   0.00029   2.63363
   R68        2.06125  -0.00001   0.00000   0.00006   0.00006   2.06131
   R69        2.63867  -0.00027   0.00000  -0.00080  -0.00073   2.63793
   R70        2.06367   0.00001   0.00000   0.00006   0.00006   2.06373
   R71        2.06256   0.00002   0.00000   0.00007   0.00007   2.06263
    A1        1.61033   0.00003   0.00000   0.00399   0.00517   1.61551
    A2        1.56207  -0.00002   0.00000  -0.00100  -0.00157   1.56049
    A3        3.20092  -0.00008   0.00000   0.00096   0.00138   3.20230
    A4        3.26605  -0.00021   0.00000  -0.00126  -0.00193   3.26412
    A5        1.04871   0.00040   0.00000   0.01307   0.01483   1.06354
    A6        1.57431   0.00035   0.00000   0.00340   0.00242   1.57672
    A7        1.70227   0.00021   0.00000  -0.01220  -0.01264   1.68962
    A8        1.56388   0.00004   0.00000   0.00126   0.00129   1.56517
    A9        1.59059  -0.00011   0.00000  -0.00303  -0.00380   1.58680
   A10        1.00937  -0.00009   0.00000  -0.01773  -0.01749   0.99188
   A11        3.18464   0.00038   0.00000   0.00739   0.00759   3.19223
   A12        3.02812  -0.00013   0.00000  -0.00332  -0.00316   3.02496
   A13        1.71613   0.00011   0.00000   0.00381   0.00223   1.71836
   A14        1.70437  -0.00020   0.00000  -0.00032  -0.00041   1.70396
   A15        2.61078   0.00039   0.00000   0.01207   0.01326   2.62404
   A16        2.44313   0.00012   0.00000  -0.01751  -0.01708   2.42605
   A17        1.69156   0.00009   0.00000   0.00216   0.00200   1.69357
   A18        3.26434   0.00019   0.00000  -0.01320  -0.01422   3.25012
   A19        3.28633   0.00017   0.00000   0.00486   0.00334   3.28967
   A20        2.03048  -0.00029   0.00000  -0.00913  -0.01014   2.02034
   A21        1.49458  -0.00026   0.00000  -0.00455  -0.00389   1.49069
   A22        1.30743   0.00001   0.00000   0.01314   0.01425   1.32168
   A23        2.06589   0.00015   0.00000   0.01862   0.01841   2.08429
   A24        3.18822   0.00014   0.00000   0.00171   0.00192   3.19014
   A25        3.18631   0.00012   0.00000   0.00110   0.00128   3.18759
   A26        3.15284   0.00010   0.00000   0.00266   0.00253   3.15536
   A27        3.15900   0.00013   0.00000   0.00359   0.00356   3.16257
   A28        1.31496  -0.00015   0.00000  -0.04039  -0.04125   1.27371
   A29        3.19099  -0.00020   0.00000   0.00010  -0.00034   3.19065
   A30        3.15622  -0.00013   0.00000  -0.00390  -0.00393   3.15229
   A31        3.19237  -0.00019   0.00000   0.00175   0.00148   3.19385
   A32        3.14357   0.00006   0.00000   0.00615   0.00608   3.14965
   A33        1.56115  -0.00011   0.00000   0.02142   0.02026   1.58141
   A34        1.62983  -0.00010   0.00000  -0.02132  -0.02060   1.60924
   A35        3.12833   0.00032   0.00000   0.00453   0.00453   3.13286
   A36        3.15332  -0.00011   0.00000  -0.00598  -0.00598   3.14734
   A37        2.14073  -0.00012   0.00000  -0.00134  -0.00168   2.13906
   A38        2.06820   0.00034   0.00000   0.00140   0.00163   2.06983
   A39        2.06818  -0.00021   0.00000  -0.00085  -0.00078   2.06740
   A40        2.11774   0.00000   0.00000   0.00005   0.00005   2.11779
   A41        2.08216  -0.00004   0.00000  -0.00037  -0.00037   2.08180
   A42        2.08287   0.00004   0.00000   0.00031   0.00031   2.08319
   A43        2.10804  -0.00001   0.00000   0.00008   0.00007   2.10811
   A44        2.07497   0.00004   0.00000  -0.00005  -0.00004   2.07493
   A45        2.09987  -0.00002   0.00000  -0.00010  -0.00011   2.09976
   A46        2.15525   0.00001   0.00000  -0.00020  -0.00018   2.15507
   A47        2.04897  -0.00009   0.00000  -0.00125  -0.00126   2.04771
   A48        2.07881   0.00008   0.00000   0.00144   0.00143   2.08024
   A49        2.36111   0.00004   0.00000  -0.09668  -0.09581   2.26531
   A50        3.24600  -0.00010   0.00000   0.05801   0.05803   3.30403
   A51        3.14003   0.00031   0.00000   0.01469   0.01425   3.15429
   A52        3.13848   0.00031   0.00000   0.01589   0.01620   3.15468
   A53        3.15873   0.00006   0.00000  -0.01927  -0.01804   3.14069
   A54        3.15174  -0.00001   0.00000  -0.01226  -0.01338   3.13836
   A55        2.08961   0.00010   0.00000  -0.00119  -0.00025   2.08936
   A56        2.08857  -0.00034   0.00000   0.00007  -0.00008   2.08848
   A57        2.10497   0.00023   0.00000   0.00112   0.00033   2.10530
   A58        2.08297  -0.00025   0.00000  -0.00092  -0.00031   2.08266
   A59        2.07491   0.00043   0.00000  -0.00039  -0.00195   2.07296
   A60        2.12517  -0.00018   0.00000   0.00138   0.00233   2.12749
   A61        2.08741  -0.00009   0.00000  -0.00028  -0.00017   2.08724
   A62        2.09721   0.00015   0.00000   0.00040   0.00017   2.09737
   A63        2.09857  -0.00006   0.00000  -0.00011   0.00000   2.09857
   A64        2.09490   0.00003   0.00000   0.00072   0.00061   2.09551
   A65        2.08362   0.00001   0.00000  -0.00030  -0.00008   2.08354
   A66        2.10467  -0.00004   0.00000  -0.00042  -0.00053   2.10414
   A67        0.45489   0.00000   0.00000   0.00169   0.00168   0.45657
   A68        1.84247  -0.00073   0.00000   0.00845   0.00786   1.85034
   A69        0.99496   0.00021   0.00000  -0.01575  -0.01562   0.97934
   A70        0.58491  -0.00010   0.00000  -0.00240  -0.00251   0.58240
   A71        1.79426  -0.00066   0.00000   0.02006   0.01954   1.81380
   A72        1.09371   0.00015   0.00000  -0.03056  -0.03074   1.06297
   A73        1.60176  -0.00080   0.00000  -0.02176  -0.02205   1.57971
   A74        1.14311   0.00021   0.00000   0.02977   0.02920   1.17231
   A75        2.72395  -0.00058   0.00000   0.01461   0.01312   2.73707
   A76        2.06734   0.00045   0.00000   0.00705   0.00709   2.07443
   A77        2.14359  -0.00023   0.00000  -0.00465  -0.00478   2.13881
   A78        2.06617  -0.00022   0.00000  -0.00107  -0.00106   2.06511
   A79        2.11771   0.00001   0.00000  -0.00015  -0.00015   2.11757
   A80        2.08097   0.00003   0.00000   0.00062   0.00061   2.08157
   A81        2.08425  -0.00004   0.00000  -0.00041  -0.00040   2.08385
   A82        2.07596  -0.00006   0.00000  -0.00044  -0.00044   2.07552
   A83        2.10775   0.00003   0.00000   0.00017   0.00016   2.10791
   A84        2.09932   0.00003   0.00000   0.00026   0.00026   2.09958
   A85        2.12941   0.00020   0.00000   0.00095   0.00088   2.13029
   A86        2.04648  -0.00016   0.00000  -0.00137  -0.00134   2.04514
   A87        2.10659  -0.00004   0.00000   0.00031   0.00034   2.10693
   A88        2.13200   0.00017   0.00000   0.00021   0.00018   2.13218
   A89        2.04564   0.00005   0.00000   0.00120   0.00121   2.04685
   A90        2.10503  -0.00022   0.00000  -0.00135  -0.00134   2.10369
   A91        1.75863  -0.00013   0.00000  -0.00110  -0.00110   1.75753
   A92        1.77054  -0.00010   0.00000  -0.00070  -0.00072   1.76981
   A93        2.05499   0.00001   0.00000   0.00053   0.00049   2.05549
   A94        2.16102  -0.00017   0.00000  -0.00050  -0.00044   2.16058
   A95        2.06568   0.00016   0.00000  -0.00055  -0.00062   2.06506
   A96        2.11819  -0.00000   0.00000   0.00352   0.00342   2.12161
   A97        2.08621  -0.00002   0.00000  -0.00388  -0.00379   2.08242
   A98        2.07844   0.00002   0.00000   0.00045   0.00045   2.07888
   A99        2.10310   0.00004   0.00000  -0.00030  -0.00028   2.10282
   A100       2.08127  -0.00001   0.00000   0.00033   0.00031   2.08159
   A101       2.09856  -0.00003   0.00000   0.00000  -0.00001   2.09855
   A102       2.10045  -0.00009   0.00000  -0.00023  -0.00024   2.10021
   A103       2.09311   0.00005   0.00000   0.00018   0.00019   2.09330
   A104       2.08942   0.00005   0.00000   0.00007   0.00007   2.08949
   A105       2.09166  -0.00004   0.00000  -0.00002  -0.00001   2.09165
   A106       2.10225   0.00002   0.00000  -0.00005  -0.00006   2.10219
   A107       2.08924   0.00002   0.00000   0.00007   0.00006   2.08930
   A108       2.08270  -0.00005   0.00000   0.00038   0.00032   2.08302
   A109       2.10658   0.00003   0.00000  -0.00019  -0.00016   2.10642
   A110       2.09323   0.00003   0.00000  -0.00019  -0.00016   2.09306
   A111       2.09006  -0.00013   0.00000  -0.00125  -0.00113   2.08892
   A112       2.09380   0.00009   0.00000   0.00098   0.00093   2.09473
   A113       2.09811   0.00004   0.00000   0.00030   0.00023   2.09834
   A114       2.09246   0.00008   0.00000   0.00022   0.00017   2.09263
   A115       2.09221  -0.00011   0.00000  -0.00035  -0.00023   2.09199
   A116       2.09695   0.00002   0.00000  -0.00003  -0.00011   2.09684
   A117       2.10752  -0.00001   0.00000   0.00018   0.00022   2.10774
   A118       2.08030   0.00000   0.00000  -0.00050  -0.00057   2.07973
   A119       2.09472   0.00001   0.00000   0.00034   0.00037   2.09509
   A120       2.09118  -0.00002   0.00000  -0.00016  -0.00014   2.09104
   A121       2.08958  -0.00000   0.00000  -0.00005  -0.00006   2.08952
   A122       2.10238   0.00003   0.00000   0.00021   0.00020   2.10259
   A123       2.09932  -0.00005   0.00000  -0.00043  -0.00044   2.09888
   A124       2.09035   0.00001   0.00000   0.00019   0.00019   2.09055
   A125       2.09325   0.00003   0.00000   0.00024   0.00025   2.09350
   A126       2.10494   0.00006   0.00000   0.00078   0.00079   2.10574
   A127       2.09777   0.00000   0.00000  -0.00008  -0.00009   2.09768
   A128       2.08022  -0.00006   0.00000  -0.00073  -0.00073   2.07948
   A129       2.07716  -0.00002   0.00000  -0.00048  -0.00046   2.07670
   A130       2.10131   0.00008   0.00000   0.00303   0.00308   2.10440
   A131       2.10440  -0.00006   0.00000  -0.00254  -0.00261   2.10179
   A132       2.15732  -0.00030   0.00000  -0.00053  -0.00053   2.15679
   A133       2.05460   0.00005   0.00000  -0.00016  -0.00017   2.05444
   A134       2.07100   0.00024   0.00000   0.00090   0.00087   2.07187
   A135       2.15595   0.00003   0.00000   0.00103   0.00102   2.15696
   A136       2.04805   0.00007   0.00000   0.00066   0.00065   2.04870
   A137       2.07914  -0.00011   0.00000  -0.00162  -0.00163   2.07751
   A138       2.10083  -0.00001   0.00000   0.00015   0.00013   2.10096
   A139       2.09191   0.00002   0.00000   0.00010   0.00011   2.09202
   A140       2.09044  -0.00001   0.00000  -0.00025  -0.00024   2.09020
   A141       2.09677  -0.00013   0.00000  -0.00044  -0.00023   2.09653
   A142       2.08895   0.00009   0.00000   0.00038   0.00027   2.08922
   A143       2.09747   0.00004   0.00000   0.00007  -0.00004   2.09743
   A144       1.79364  -0.00025   0.00000  -0.01887  -0.02029   1.77335
    D1        1.25754   0.00009   0.00000  -0.02344  -0.02241   1.23513
    D2        2.82107   0.00013   0.00000  -0.02225  -0.02124   2.79983
    D3       -0.46526  -0.00003   0.00000  -0.02711  -0.02458  -0.48984
    D4       -1.50101  -0.00016   0.00000  -0.03917  -0.04001  -1.54101
    D5       -3.06279  -0.00014   0.00000  -0.03819  -0.03845  -3.10124
    D6        1.51613   0.00005   0.00000  -0.03791  -0.03808   1.47805
    D7        0.20862   0.00006   0.00000  -0.05068  -0.05187   0.15675
    D8        2.00290  -0.00010   0.00000  -0.01633  -0.01631   1.98659
    D9       -1.25878  -0.00010   0.00000  -0.02421  -0.02424  -1.28303
   D10        0.43642  -0.00012   0.00000  -0.01720  -0.01710   0.41933
   D11       -2.82526  -0.00012   0.00000  -0.02507  -0.02504  -2.85029
   D12        2.94958  -0.00018   0.00000  -0.03574  -0.03548   2.91410
   D13       -0.31210  -0.00018   0.00000  -0.04362  -0.04341  -0.35552
   D14       -1.24625  -0.00019   0.00000  -0.01882  -0.01866  -1.26492
   D15        1.77525  -0.00020   0.00000  -0.02670  -0.02660   1.74865
   D16       -2.56430   0.00004   0.00000  -0.01183  -0.01330  -2.57760
   D17        0.45720   0.00004   0.00000  -0.01970  -0.02123   0.43597
   D18       -2.13404   0.00002   0.00000  -0.00147  -0.00192  -2.13596
   D19        1.48802  -0.00019   0.00000   0.05529   0.05423   1.54225
   D20        2.37821   0.00010   0.00000   0.01844   0.01964   2.39785
   D21       -0.28292  -0.00012   0.00000   0.07520   0.07579  -0.20713
   D22        0.88355   0.00022   0.00000  -0.00259  -0.00291   0.88064
   D23       -1.77758   0.00000   0.00000   0.05416   0.05324  -1.72434
   D24       -0.67926   0.00054   0.00000   0.02378   0.02487  -0.65439
   D25        2.94279   0.00033   0.00000   0.08054   0.08102   3.02382
   D26        1.17465   0.00026   0.00000  -0.02238  -0.02162   1.15303
   D27       -2.08734   0.00024   0.00000  -0.00929  -0.00862  -2.09596
   D28        2.73708   0.00028   0.00000  -0.02297  -0.02290   2.71418
   D29       -0.52491   0.00026   0.00000  -0.00988  -0.00990  -0.53482
   D30       -1.84970   0.00005   0.00000  -0.02394  -0.02389  -1.87358
   D31        1.17149   0.00003   0.00000  -0.01085  -0.01089   1.16061
   D32        0.20411  -0.00040   0.00000  -0.03340  -0.03427   0.16985
   D33       -3.05788  -0.00042   0.00000  -0.02031  -0.02127  -3.07915
   D34        1.20655  -0.00003   0.00000   0.11927   0.11864   1.32519
   D35       -0.42393  -0.00010   0.00000   0.11655   0.11503  -0.30891
   D36       -1.97598   0.00004   0.00000   0.11876   0.11741  -1.85857
   D37       -3.00216  -0.00005   0.00000  -0.04244  -0.04140  -3.04356
   D38       -0.03724   0.00003   0.00000  -0.04944  -0.04856  -0.08579
   D39       -0.79595  -0.00006   0.00000  -0.00929  -0.00960  -0.80555
   D40       -1.84729   0.00025   0.00000   0.06865   0.06942  -1.77787
   D41        0.97811  -0.00001   0.00000   0.09894   0.09940   1.07751
   D42        0.76623  -0.00003   0.00000  -0.00166  -0.00185   0.76438
   D43        0.98319  -0.00012   0.00000  -0.00306  -0.00344   0.97975
   D44        2.91668  -0.00003   0.00000   0.07104   0.07167   2.98836
   D45       -0.35998  -0.00010   0.00000   0.09512   0.09466  -0.26531
   D46       -2.37733  -0.00009   0.00000  -0.00780  -0.00793  -2.38526
   D47       -2.16038  -0.00018   0.00000  -0.00921  -0.00952  -2.16990
   D48       -0.22688  -0.00009   0.00000   0.06490   0.06559  -0.16129
   D49        2.77964  -0.00016   0.00000   0.08898   0.08858   2.86822
   D50        2.98451   0.00012   0.00000  -0.00827  -0.00841   2.97610
   D51       -0.13770   0.00000   0.00000  -0.00798  -0.00803  -0.14574
   D52       -0.03699   0.00008   0.00000  -0.00054  -0.00065  -0.03764
   D53        3.12398  -0.00003   0.00000  -0.00025  -0.00027   3.12371
   D54       -3.03569  -0.00002   0.00000   0.00823   0.00840  -3.02729
   D55        0.06579  -0.00002   0.00000   0.00510   0.00521   0.07100
   D56       -0.00912  -0.00001   0.00000   0.00065   0.00072  -0.00840
   D57        3.09236  -0.00002   0.00000  -0.00248  -0.00247   3.08989
   D58       -0.00528  -0.00003   0.00000  -0.00402  -0.00400  -0.00928
   D59       -3.12044  -0.00002   0.00000  -0.00087  -0.00089  -3.12134
   D60        3.10531   0.00001   0.00000  -0.00416  -0.00419   3.10112
   D61       -0.00986   0.00002   0.00000  -0.00101  -0.00108  -0.01094
   D62        0.03206  -0.00004   0.00000   0.00014   0.00015   0.03221
   D63       -3.06807  -0.00003   0.00000   0.00342   0.00349  -3.06458
   D64       -3.13992   0.00001   0.00000  -0.00000  -0.00004  -3.13996
   D65        0.04314   0.00001   0.00000   0.00327   0.00331   0.04645
   D66       -0.03211   0.00004   0.00000   0.00109   0.00114  -0.03097
   D67        3.04966   0.00004   0.00000  -0.00929  -0.00927   3.04039
   D68        3.13578   0.00005   0.00000   0.00422   0.00423   3.14001
   D69       -0.06564   0.00005   0.00000  -0.00616  -0.00618  -0.07181
   D70        0.05766  -0.00009   0.00000  -0.00032  -0.00027   0.05739
   D71       -3.02746  -0.00008   0.00000   0.00948   0.00954  -3.01792
   D72       -3.10363   0.00002   0.00000  -0.00064  -0.00069  -3.10432
   D73        0.09444   0.00003   0.00000   0.00916   0.00913   0.10357
   D74       -3.12993   0.00008   0.00000  -0.00274  -0.00244  -3.13237
   D75       -0.00594   0.00021   0.00000   0.00202   0.00235  -0.00359
   D76        0.00221   0.00005   0.00000  -0.00232  -0.00247  -0.00026
   D77        3.12620   0.00017   0.00000   0.00244   0.00231   3.12851
   D78       -0.00950  -0.00002   0.00000   0.00098   0.00070  -0.00880
   D79        3.13154  -0.00006   0.00000   0.00253   0.00226   3.13380
   D80        3.14154   0.00001   0.00000   0.00057   0.00074  -3.14091
   D81       -0.00061  -0.00003   0.00000   0.00212   0.00229   0.00168
   D82        3.13759   0.00002   0.00000   0.00262   0.00265   3.14024
   D83       -0.00205  -0.00004   0.00000   0.00108   0.00112  -0.00093
   D84        0.01413  -0.00011   0.00000  -0.00227  -0.00224   0.01188
   D85       -3.12552  -0.00017   0.00000  -0.00380  -0.00377  -3.12929
   D86       -0.10873  -0.00006   0.00000  -0.05367  -0.05434  -0.16307
   D87        0.05761  -0.00019   0.00000  -0.05339  -0.05458   0.00303
   D88       -0.50024   0.00002   0.00000  -0.03642  -0.03567  -0.53591
   D89       -0.80713   0.00025   0.00000   0.00499   0.00622  -0.80090
   D90        3.01482   0.00007   0.00000  -0.04881  -0.04946   2.96536
   D91       -3.10203  -0.00006   0.00000  -0.04853  -0.04970   3.13146
   D92        2.62330   0.00015   0.00000  -0.03156  -0.03078   2.59252
   D93        2.31642   0.00037   0.00000   0.00985   0.01111   2.32752
   D94        0.00031   0.00001   0.00000   0.00034   0.00039   0.00070
   D95        3.14112   0.00002   0.00000   0.00007   0.00007   3.14119
   D96       -3.13932  -0.00005   0.00000  -0.00120  -0.00115  -3.14047
   D97        0.00149  -0.00004   0.00000  -0.00147  -0.00147   0.00002
   D98       -0.00116   0.00000   0.00000  -0.00068  -0.00076  -0.00192
   D99       -3.14135   0.00001   0.00000  -0.00116  -0.00120   3.14063
   D100       3.13988  -0.00004   0.00000   0.00088   0.00080   3.14068
   D101      -0.00032  -0.00003   0.00000   0.00040   0.00036   0.00004
   D102      -0.34433   0.00008   0.00000  -0.02025  -0.01808  -0.36241
   D103      -0.50212   0.00020   0.00000  -0.02960  -0.02663  -0.52875
   D104       0.14826   0.00002   0.00000  -0.03765  -0.03806   0.11021
   D105       0.48651  -0.00025   0.00000  -0.08816  -0.08818   0.39834
   D106       3.02144   0.00011   0.00000   0.02052   0.02044   3.04188
   D107      -0.08579   0.00007   0.00000   0.01871   0.01864  -0.06715
   D108      -0.00516   0.00013   0.00000   0.00831   0.00828   0.00312
   D109      -3.11240   0.00009   0.00000   0.00649   0.00649  -3.10591
   D110      -2.98569  -0.00016   0.00000  -0.02329  -0.02308  -3.00877
   D111       0.14493  -0.00009   0.00000  -0.01704  -0.01693   0.12800
   D112       0.03558  -0.00013   0.00000  -0.00967  -0.00961   0.02597
   D113      -3.11699  -0.00007   0.00000  -0.00342  -0.00346  -3.12045
   D114       3.12721  -0.00003   0.00000  -0.00168  -0.00169   3.12552
   D115       0.00467   0.00000   0.00000  -0.00068  -0.00068   0.00399
   D116       0.00991  -0.00005   0.00000  -0.00458  -0.00455   0.00536
   D117      -3.11263  -0.00002   0.00000  -0.00359  -0.00355  -3.11617
   D118      -0.01708  -0.00004   0.00000  -0.00131  -0.00134  -0.01842
   D119       3.08901   0.00000   0.00000   0.00062   0.00057   3.08957
   D120      -3.13485  -0.00006   0.00000  -0.00416  -0.00415  -3.13900
   D121      -0.02876  -0.00002   0.00000  -0.00223  -0.00225  -0.03101
   D122      -3.09907   0.00002   0.00000  -0.00718  -0.00712  -3.10619
   D123       0.01763   0.00005   0.00000   0.00337   0.00338   0.02101
   D124       0.02356  -0.00001   0.00000  -0.00817  -0.00812   0.01544
   D125       3.14025   0.00002   0.00000   0.00238   0.00238  -3.14055
   D126      -2.38751  -0.00002   0.00000  -0.00033  -0.00028  -2.38779
   D127       0.80696  -0.00000   0.00000  -0.00087  -0.00088   0.80608
   D128      -0.81797  -0.00003   0.00000  -0.00166  -0.00167  -0.81964
   D129       2.38364   0.00001   0.00000   0.00141   0.00138   2.38502
   D130       2.43000  -0.00002   0.00000  -0.00136  -0.00144   2.42856
   D131      -0.75130  -0.00003   0.00000  -0.00139  -0.00145  -0.75275
   D132       0.74017  -0.00002   0.00000  -0.00133  -0.00130   0.73887
   D133      -2.43976  -0.00002   0.00000  -0.00079  -0.00074  -2.44050
   D134       1.38140   0.00010   0.00000   0.02452   0.02436   1.40575
   D135      -1.78874   0.00014   0.00000   0.02797   0.02778  -1.76095
   D136      -1.82036   0.00009   0.00000   0.01411   0.01394  -1.80642
   D137       1.29269   0.00014   0.00000   0.01756   0.01736   1.31005
   D138       3.07635   0.00002   0.00000   0.00194   0.00197   3.07832
   D139      -0.04127   0.00002   0.00000   0.00076   0.00076  -0.04051
   D140      -0.03682  -0.00002   0.00000  -0.00143  -0.00138  -0.03820
   D141       3.12874  -0.00002   0.00000  -0.00261  -0.00259   3.12614
   D142       0.12810  -0.00003   0.00000  -0.00433  -0.00441   0.12369
   D143      -3.06650  -0.00005   0.00000  -0.00378  -0.00379  -3.07029
   D144      -3.04138   0.00001   0.00000  -0.00091  -0.00101  -3.04240
   D145       0.04720  -0.00001   0.00000  -0.00035  -0.00039   0.04681
   D146      -0.00705   0.00003   0.00000   0.00189   0.00187  -0.00518
   D147      -3.12694   0.00002   0.00000   0.00078   0.00076  -3.12618
   D148       3.11034   0.00003   0.00000   0.00309   0.00310   3.11344
   D149      -0.00955   0.00002   0.00000   0.00198   0.00199  -0.00756
   D150       0.04089  -0.00001   0.00000  -0.00056  -0.00057   0.04031
   D151      -3.10935  -0.00002   0.00000  -0.00103  -0.00101  -3.11036
   D152      -3.12236   0.00000   0.00000   0.00056   0.00054  -3.12182
   D153       0.01058  -0.00000   0.00000   0.00009   0.00010   0.01068
   D154       3.07195  -0.00004   0.00000  -0.00127  -0.00122   3.07073
   D155      -0.03025  -0.00002   0.00000  -0.00124  -0.00121  -0.03146
   D156      -0.06106  -0.00003   0.00000  -0.00080  -0.00078  -0.06184
   D157       3.11993  -0.00002   0.00000  -0.00077  -0.00078   3.11915
   D158      -0.02710   0.00002   0.00000   0.00220   0.00225  -0.02485
   D159      -3.11558   0.00005   0.00000   0.00171   0.00169  -3.11388
   D160       3.07454   0.00001   0.00000   0.00218   0.00226   3.07680
   D161      -0.01393   0.00003   0.00000   0.00170   0.00170  -0.01223
   D162       0.04752   0.00005   0.00000   0.00284   0.00284   0.05037
   D163      -3.05542   0.00004   0.00000   0.00231   0.00230  -3.05312
   D164       3.12894   0.00001   0.00000  -0.00025  -0.00022   3.12872
   D165       0.02600   0.00000   0.00000  -0.00078  -0.00077   0.02523
   D166       3.01946  -0.00003   0.00000  -0.00288  -0.00285   3.01661
   D167      -0.14876  -0.00001   0.00000  -0.00257  -0.00255  -0.15131
   D168      -0.06196   0.00000   0.00000   0.00019   0.00020  -0.06176
   D169       3.05300   0.00003   0.00000   0.00050   0.00050   3.05350
   D170      -3.07409  -0.00001   0.00000  -0.00009  -0.00012  -3.07422
   D171       0.05723  -0.00001   0.00000   0.00029   0.00027   0.05750
   D172       0.02945  -0.00000   0.00000   0.00045   0.00043   0.02988
   D173      -3.12241   0.00000   0.00000   0.00082   0.00082  -3.12158
   D174      -0.04845   0.00001   0.00000   0.00052   0.00052  -0.04793
   D175       3.11784   0.00000   0.00000   0.00033   0.00034   3.11818
   D176       3.10348   0.00001   0.00000   0.00014   0.00013   3.10361
   D177      -0.01341  -0.00000   0.00000  -0.00005  -0.00005  -0.01346
   D178       0.01176  -0.00001   0.00000  -0.00113  -0.00112   0.01064
   D179      -3.10555  -0.00000   0.00000   0.00036   0.00036  -3.10520
   D180       3.12861   0.00000   0.00000  -0.00095  -0.00094   3.12767
   D181       0.01130   0.00000   0.00000   0.00054   0.00054   0.01183
   D182       0.04329   0.00000   0.00000   0.00078   0.00076   0.04405
   D183      -3.07162  -0.00003   0.00000   0.00038   0.00037  -3.07125
   D184      -3.12234   0.00000   0.00000  -0.00069  -0.00069  -3.12303
   D185       0.04594  -0.00003   0.00000  -0.00108  -0.00108   0.04485
   D186       1.89475   0.00003   0.00000   0.03397   0.03401   1.92876
   D187      -1.22172  -0.00000   0.00000   0.02334   0.02342  -1.19830
   D188      -1.27389   0.00005   0.00000   0.03431   0.03435  -1.23954
   D189       1.89282   0.00002   0.00000   0.02369   0.02376   1.91658
   D190      -0.04188   0.00004   0.00000   0.00385   0.00379  -0.03810
   D191       3.11087  -0.00003   0.00000  -0.00253  -0.00247   3.10839
   D192       3.07608   0.00006   0.00000   0.01384   0.01375   3.08982
   D193      -0.05436  -0.00001   0.00000   0.00747   0.00749  -0.04687
   D194       0.00132   0.00001   0.00000  -0.00055  -0.00057   0.00075
   D195       3.14151  -0.00000   0.00000  -0.00006  -0.00013   3.14138
   D196      -3.13949  -0.00000   0.00000  -0.00028  -0.00025  -3.13974
   D197       0.00070  -0.00001   0.00000   0.00021   0.00019   0.00089
         Item               Value     Threshold  Converged?
 Maximum Force            0.002857     0.000450     NO 
 RMS     Force            0.000225     0.000300     YES
 Maximum Displacement     0.518961     0.001800     NO 
 RMS     Displacement     0.107690     0.001200     NO 
 Predicted change in Energy=-1.727175D-04
 GradGradGradGradGradGradGradGradGradGradGradGradGradGradGradGradGradGrad

 Stoichiometry    C32H19BrMnN3O3S2
 Framework group  C1[X(C32H19BrMnN3O3S2)]
 Deg. of freedom   177
 Full point group                 C1      NOp   1
 Largest Abelian subgroup         C1      NOp   1
 Largest concise Abelian subgroup C1      NOp   1
                         Standard orientation:                         
 ---------------------------------------------------------------------
 Center     Atomic      Atomic             Coordinates (Angstroms)
 Number     Number       Type             X           Y           Z
 ---------------------------------------------------------------------
      1         25           0        1.086786    0.662068    1.513579
      2          6           0        1.818184    2.217362    2.205668
      3          8           0        2.218660    3.182511    2.659506
      4          6           0        2.306085   -0.404019    2.399863
      5          8           0        3.018789   -1.073295    2.985528
      6          6           0       -0.006311    0.569243    2.926701
      7          7           0        0.346434   -0.983396    0.483589
      8          6           0        0.612033   -2.525506   -1.323351
      9          6           0       -0.690940   -2.983951   -1.150940
     10          6           0       -0.894981   -1.445769    0.663339
     11          1           0        1.254223   -2.924591   -2.108474
     12          1           0       -1.104595   -3.752116   -1.807494
     13          7           0        4.768015    1.175826    1.309762
     14          6           0        5.572629    0.509878    0.807486
     15          6           0        6.585939   -0.305225    0.187842
     16          6           0        6.583225   -0.479339   -1.205376
     17          6           0        7.558973   -1.277154   -1.794279
     18          6           0        7.559669   -0.926852    0.983868
     19          1           0        5.803816    0.008627   -1.794604
     20          1           0        7.552788   -0.785760    2.065945
     21          7           0       -0.175976    1.787062    0.286772
     22          6           0       -0.412649    3.213060   -1.618284
     23          6           0       -1.799016    3.108337   -1.551212
     24          1           0        0.074171    3.802507   -2.395035
     25          6           0        1.090308   -1.513217   -0.501331
     26          1           0        2.084486   -1.085480   -0.662114
     27          6           0        0.365230    2.531837   -0.691355
     28          1           0        1.456263    2.560165   -0.754112
     29          1           0        7.560128   -1.416470   -2.876793
     30          8           0       -0.715388    0.507112    3.824680
     31         16           0       -3.402418   -0.438482   -1.394097
     32         16           0       -6.495346   -0.964791   -0.777393
     33          6           0       -1.476547   -2.419758   -0.144755
     34          6           0       -2.919292   -2.736590    0.056535
     35          6           0       -3.327481   -3.893282    0.725028
     36          6           0       -4.679666   -4.130315    0.966894
     37          6           0       -5.640081   -3.212516    0.549760
     38          6           0       -5.250995   -2.071778   -0.157089
     39          6           0       -3.893970   -1.836074   -0.410740
     40          1           0       -2.573838   -4.601063    1.075906
     41          1           0       -4.987613   -5.029873    1.502666
     42          1           0       -6.697163   -3.382061    0.763817
     43          6           0       -4.399752    0.842360   -0.669087
     44          6           0       -5.762249    0.616830   -0.432131
     45          6           0       -6.571415    1.654091    0.038214
     46          6           0       -6.027852    2.920376    0.236413
     47          6           0       -4.669091    3.142535    0.022256
     48          6           0       -3.836104    2.104749   -0.405480
     49          1           0       -7.628255    1.467676    0.238927
     50          1           0       -6.665233    3.735665    0.582884
     51          1           0       -4.237425    4.127616    0.210673
     52          6           0       -2.368788    2.324307   -0.547011
     53          1           0       -2.433554    3.614356   -2.281784
     54          6           0       -1.508750    1.704074    0.357384
     55          1           0       -1.932194    1.111788    1.169624
     56          1           0       -1.476831   -1.014477    1.479390
     57          6           0        8.529823   -1.895689   -1.004898
     58          6           0        8.530235   -1.720550    0.380005
     59          1           0        9.290874   -2.205954    0.994152
     60          1           0        9.293224   -2.521224   -1.472401
     61         35           0        3.141631    0.837587   -2.478429
 ---------------------------------------------------------------------
 Rotational constants (GHZ):           0.1207530           0.0370695           0.0351848
 Basis read from rwf:  (5D, 7F)
 There are   800 symmetry adapted cartesian basis functions of A   symmetry.
 There are   749 symmetry adapted basis functions of A   symmetry.
   749 basis functions,  1349 primitive gaussians,   800 cartesian basis functions
   174 alpha electrons      174 beta electrons
       nuclear repulsion energy      6342.0027881304 Hartrees.
 NAtoms=   61 NActive=   61 NUniq=   61 SFac= 1.00D+00 NAtFMM=   60 NAOKFM=T Big=T
 Integral buffers will be    131072 words long.
 Raffenetti 2 integral format.
 Two-electron integral symmetry is turned on.
 Nuclear repulsion after empirical dispersion term =     6341.9438935535 Hartrees.
 ------------------------------------------------------------------------------
 Polarizable Continuum Model (PCM)
 =================================
 Model                : PCM.
 Atomic radii         : UFF (Universal Force Field).
 Polarization charges : Total charges.
 Charge compensation  : None.
 Solution method      : On-the-fly selection.
 Cavity type          : Scaled VdW (van der Waals Surface) (Alpha=1.100).
 Cavity algorithm     : GePol (No added spheres)
                        Default sphere list used, NSphG=   61.
                        Lebedev-Laikov grids with approx.  5.0 points / Ang**2.
                        Smoothing algorithm: York/Karplus (Gamma=1.0000).
                        Polarization charges: spherical gaussians, with
                                              point-specific exponents (IZeta= 3).
                        Self-potential: point-specific (ISelfS= 7).
                        Self-field    : sphere-specific E.n sum rule (ISelfD= 2).
 1st derivatives      : Analytical E(r).r(x)/FMM algorithm (CHGder, D1EAlg=3).
                        Cavity 1st derivative terms included.
 Solvent              : TetraHydroFuran, Eps=   7.425700 Eps(inf)=   1.974025
 ------------------------------------------------------------------------------
 One-electron integrals computed using PRISM.
 PrsmSu:  requested number of processors reduced to:  11 ShMem   1 Linda.
 NBasis=   749 RedAO= T EigKep=  2.26D-04  NBF=   749
 NBsUse=   749 1.00D-06 EigRej= -1.00D+00 NBFU=   749
 Initial guess from the checkpoint file:  "checkpoint.chk"
 B after Tr=     0.000000    0.000000   -0.000000
         Rot=    0.999991   -0.002910   -0.000962   -0.002795 Ang=  -0.48 deg.
 ExpMin= 3.93D-02 ExpMax= 2.77D+05 ExpMxC= 1.70D+04 IAcc=3 IRadAn=         5 AccDes= 0.00D+00
 Harris functional with IExCor= 4639 and IRadAn=       5 diagonalized for initial guess.
 HarFok:  IExCor= 4639 AccDes= 0.00D+00 IRadAn=         5 IDoV= 1 UseB2=F ITyADJ=14
 ICtDFT=  3500011 ScaDFX=  1.000000  1.000000  1.000000  1.000000
 FoFCou: FMM=F IPFlag=           0 FMFlag=      100000 FMFlg1=        2001
         NFxFlg=           0 DoJE=T BraDBF=F KetDBF=T FulRan=T
         wScrn=  0.000000 ICntrl=       500 IOpCl=  0 I1Cent=   200000004 NGrid=           0
         NMat0=    1 NMatS0=      1 NMatT0=    0 NMatD0=    1 NMtDS0=    0 NMtDT0=    0
 Petite list used in FoFCou.
 Requested convergence on RMS density matrix=1.00D-08 within 128 cycles.
 Requested convergence on MAX density matrix=1.00D-06.
 Requested convergence on             energy=1.00D-06.
 No special actions if energy rises.
 CoulSu:  requested number of processors reduced to:   7 ShMem   1 Linda.
 Inv3:  Mode=2 IEnd=    51877298.
 Iteration    1 A*A^-1 deviation from unit magnitude is 4.22D-15 for    761.
 Iteration    1 A*A^-1 deviation from orthogonality  is 2.11D-15 for   3091   3058.
 Iteration    1 A^-1*A deviation from unit magnitude is 4.22D-15 for    761.
 Iteration    1 A^-1*A deviation from orthogonality  is 3.28D-12 for   4184   4182.
 CoulSu:  requested number of processors reduced to:   7 ShMem   1 Linda.
 CoulSu:  requested number of processors reduced to:   7 ShMem   1 Linda.
 EnCoef did     3 forward-backward iterations
 Error on total polarization charges =  0.02143
 SCF Done:  E(RwB97XD) =  -6140.22981617     A.U. after   16 cycles
            NFock= 16  Conv=0.89D-08     -V/T= 2.0038
 PrsmSu:  requested number of processors reduced to:  11 ShMem   1 Linda.
 D1PCM: PCM CHGder 1st derivatives, ID1Alg=3 FixD1E=F DoIter=F DoCFld=F I1PDM=0.
 CoulSu:  requested number of processors reduced to:   9 ShMem   1 Linda.
 CoulSu:  requested number of processors reduced to:  10 ShMem   1 Linda.
 Calling FoFJK, ICntrl=      2127 FMM=T ISym2X=0 I1Cent= 0 IOpClX= 0 NMat=1 NMatS=1 NMatT=0.
 ***** Axes restored to original set *****
 -------------------------------------------------------------------
 Center     Atomic                   Forces (Hartrees/Bohr)
 Number     Number              X              Y              Z
 -------------------------------------------------------------------
      1       25           0.001312748    0.000539648    0.001843642
      2        6           0.000274699    0.000286872   -0.000082187
      3        8          -0.001008851    0.000080663   -0.000517016
      4        6           0.000878812    0.000231666   -0.000044949
      5        8          -0.000506438    0.000025256   -0.000000625
      6        6          -0.000074130    0.000139210   -0.000439237
      7        7          -0.000208533   -0.000008218   -0.000232816
      8        6           0.000076705    0.000231229    0.000003805
      9        6          -0.000022744   -0.000201866    0.000075109
     10        6           0.000187899    0.000181765   -0.000404612
     11        1           0.000020913    0.000005720    0.000046433
     12        1           0.000002990    0.000006368   -0.000021936
     13        7          -0.001609750    0.001431449   -0.001254774
     14        6           0.001392604   -0.000365278    0.001379421
     15        6          -0.000529409   -0.000582769   -0.000755105
     16        6           0.002793141   -0.001413899   -0.000378689
     17        6          -0.000020418    0.000249721    0.000060346
     18        6           0.000178018    0.000149995    0.000108173
     19        1          -0.001723156   -0.000290826    0.000542740
     20        1          -0.000000204   -0.000077880   -0.000025915
     21        7          -0.000669000    0.000025118    0.000045659
     22        6           0.000006269   -0.000038719   -0.000111508
     23        6          -0.000110159    0.000019242    0.000005681
     24        1          -0.000000858    0.000034387   -0.000008546
     25        6          -0.000187100   -0.000378488   -0.000137164
     26        1          -0.000326261   -0.000088621   -0.000459112
     27        6          -0.000249244    0.000323573    0.000183353
     28        1           0.000079815   -0.000277829   -0.000059602
     29        1          -0.000022930    0.000006868   -0.000013789
     30        8          -0.000075616   -0.000192284    0.000126617
     31       16           0.000017047   -0.000192626    0.000064677
     32       16          -0.000019516    0.000052820   -0.000011280
     33        6           0.000127775    0.000008183   -0.000040654
     34        6          -0.000275919    0.000113441   -0.000103924
     35        6           0.000116348    0.000018937   -0.000042084
     36        6          -0.000069479    0.000078392   -0.000010132
[...]
   D50        3.04246  -0.00047   0.00000  -0.00922  -0.00922   3.03324
   D51       -0.09630  -0.00019   0.00000   0.00277   0.00278  -0.09352
   D52       -0.02351  -0.00027   0.00000  -0.00961  -0.00963  -0.03314
   D53        3.12091   0.00001   0.00000   0.00237   0.00237   3.12328
   D54       -3.07681   0.00034   0.00000   0.00614   0.00614  -3.07067
   D55        0.04332   0.00025   0.00000   0.00791   0.00791   0.05124
   D56       -0.00759   0.00016   0.00000   0.00675   0.00675  -0.00084
   D57        3.11255   0.00007   0.00000   0.00851   0.00852   3.12106
   D58       -0.00345  -0.00003   0.00000  -0.00040  -0.00040  -0.00386
   D59       -3.12617  -0.00001   0.00000  -0.00063  -0.00063  -3.12680
   D60        3.11789  -0.00014   0.00000  -0.00324  -0.00326   3.11463
   D61       -0.00482  -0.00012   0.00000  -0.00347  -0.00349  -0.00831
   D62        0.02141   0.00003   0.00000  -0.00032  -0.00030   0.02112
   D63       -3.09801   0.00013   0.00000  -0.00207  -0.00205  -3.10006
   D64       -3.14000  -0.00007   0.00000  -0.00310  -0.00309   3.14010
   D65        0.02377   0.00003   0.00000  -0.00484  -0.00485   0.01892
   D66       -0.02339   0.00002   0.00000   0.00091   0.00090  -0.02249
   D67        3.09560  -0.00012   0.00000   0.00072   0.00071   3.09631
   D68        3.13698   0.00004   0.00000   0.00069   0.00068   3.13766
   D69       -0.02721  -0.00010   0.00000   0.00050   0.00049  -0.02673
   D70        0.03902   0.00018   0.00000   0.00582   0.00584   0.04487
   D71       -3.08118   0.00031   0.00000   0.00594   0.00597  -3.07521
   D72       -3.10544  -0.00010   0.00000  -0.00637  -0.00636  -3.11180
   D73        0.05754   0.00003   0.00000  -0.00624  -0.00623   0.05131
   D74       -3.10958  -0.00031   0.00000  -0.00358  -0.00321  -3.11278
   D75        0.02008  -0.00030   0.00000  -0.01041  -0.01012   0.00996
   D76        0.00398  -0.00008   0.00000  -0.00435  -0.00440  -0.00042
   D77        3.13364  -0.00006   0.00000  -0.01117  -0.01132   3.12233
   D78       -0.02605   0.00023   0.00000   0.00479   0.00450  -0.02155
   D79        3.11338   0.00027   0.00000   0.00366   0.00337   3.11674
   D80       -3.13966  -0.00001   0.00000   0.00549   0.00563  -3.13403
   D81       -0.00023   0.00003   0.00000   0.00437   0.00449   0.00427
   D82        3.13969   0.00004   0.00000  -0.00181  -0.00184   3.13785
   D83       -0.00501   0.00007   0.00000   0.00103   0.00099  -0.00403
   D84        0.01031   0.00002   0.00000   0.00524   0.00535   0.01566
   D85       -3.13440   0.00005   0.00000   0.00808   0.00818  -3.12622
   D86       -0.46339   0.00001   0.00000  -0.03552  -0.03553  -0.49892
   D87       -0.32200  -0.00005   0.00000  -0.03704  -0.03713  -0.35914
   D88       -0.76060  -0.00007   0.00000  -0.02490  -0.02442  -0.78502
   D89       -0.15277  -0.00013   0.00000   0.07010   0.07077  -0.08200
   D90        2.66599   0.00003   0.00000  -0.04253  -0.04264   2.62335
   D91        2.80738  -0.00003   0.00000  -0.04405  -0.04425   2.76314
   D92        2.36879  -0.00005   0.00000  -0.03191  -0.03154   2.33725
   D93        2.97662  -0.00012   0.00000   0.06309   0.06365   3.04027
   D94        0.00234  -0.00001   0.00000   0.00223   0.00230   0.00464
   D95       -3.13957  -0.00001   0.00000  -0.00001   0.00002  -3.13955
   D96        3.14079   0.00002   0.00000   0.00509   0.00515  -3.13724
   D97       -0.00111   0.00002   0.00000   0.00285   0.00286   0.00175
   D98       -0.00251   0.00002   0.00000  -0.00107  -0.00117  -0.00367
   D99        3.14024  -0.00002   0.00000  -0.00062  -0.00065   3.13959
   D100       3.13691   0.00006   0.00000  -0.00220  -0.00231   3.13460
   D101      -0.00353   0.00002   0.00000  -0.00175  -0.00179  -0.00533
   D102      -0.34049   0.00005   0.00000   0.00659   0.00669  -0.33380
   D103      -0.49617   0.00014   0.00000   0.01039   0.01075  -0.48543
   D104      -0.08711   0.00015   0.00000  -0.01832  -0.01838  -0.10549
   D105      -0.68211   0.00027   0.00000  -0.10571  -0.10524  -0.78736
   D106       2.98562   0.00023   0.00000   0.00520   0.00516   2.99079
   D107      -0.11277  -0.00008   0.00000   0.00042   0.00039  -0.11237
   D108      -0.00678   0.00020   0.00000   0.00783   0.00782   0.00104
   D109      -3.10517  -0.00011   0.00000   0.00304   0.00305  -3.10213
   D110      -2.94000  -0.00010   0.00000   0.00194   0.00198  -2.93802
   D111       0.18346  -0.00011   0.00000  -0.00141  -0.00140   0.18206
   D112       0.04626  -0.00003   0.00000  -0.00097  -0.00095   0.04532
   D113      -3.11346  -0.00004   0.00000  -0.00432  -0.00432  -3.11778
   D114       3.12540   0.00000   0.00000  -0.00032  -0.00032   3.12508
   D115       0.00612   0.00008   0.00000   0.00471   0.00471   0.01084
   D116       0.01673  -0.00002   0.00000  -0.00212  -0.00211   0.01462
   D117      -3.10255   0.00006   0.00000   0.00291   0.00293  -3.09962
   D118      -0.02409  -0.00018   0.00000  -0.00633  -0.00634  -0.03043
   D119       3.07316   0.00013   0.00000  -0.00144  -0.00146   3.07170
   D120      -3.13346  -0.00020   0.00000  -0.00808  -0.00807  -3.14154
   D121      -0.03621   0.00011   0.00000  -0.00319  -0.00319  -0.03940
   D122      -3.06602   0.00015   0.00000   0.01278   0.01280  -3.05321
   D123       0.01910   0.00017   0.00000   0.00846   0.00846   0.02757
   D124       0.05339   0.00008   0.00000   0.00776   0.00778   0.06117
   D125       3.13850   0.00010   0.00000   0.00345   0.00344  -3.14124
   D126      -2.38432   0.00006   0.00000   0.00173   0.00174  -2.38258
   D127       0.81643  -0.00001   0.00000   0.00196   0.00196   0.81839
   D128      -0.81250   0.00003   0.00000   0.00031   0.00031  -0.81219
   D129       2.37878   0.00013   0.00000   0.00168   0.00167   2.38045
   D130       2.43249   0.00002   0.00000   0.00180   0.00179   2.43428
   D131      -0.74820   0.00006   0.00000   0.00156   0.00155  -0.74665
   D132       0.75210  -0.00002   0.00000   0.00107   0.00107   0.75317
   D133      -2.42584  -0.00007   0.00000  -0.00138  -0.00138  -2.42722
   D134       1.25609  -0.00004   0.00000   0.00724   0.00722   1.26331
   D135      -1.91251  -0.00014   0.00000   0.00143   0.00141  -1.91109
   D136      -1.90827  -0.00018   0.00000   0.00709   0.00707  -1.90121
   D137       1.20632  -0.00028   0.00000   0.00128   0.00126   1.20758
   D138       3.07282  -0.00007   0.00000  -0.00671  -0.00670   3.06612
   D139      -0.04113  -0.00011   0.00000  -0.00911  -0.00910  -0.05023
   D140      -0.04209   0.00003   0.00000  -0.00099  -0.00098  -0.04307
   D141       3.12715  -0.00002   0.00000  -0.00339  -0.00339   3.12375
   D142       0.14141   0.00008   0.00000   0.00948   0.00946   0.15088
   D143      -3.05948   0.00014   0.00000   0.00922   0.00921  -3.05027
   D144      -3.02673  -0.00002   0.00000   0.00376   0.00374  -3.02298
   D145       0.05557   0.00004   0.00000   0.00350   0.00349   0.05905
   D146      -0.00787  -0.00006   0.00000  -0.00189  -0.00189  -0.00976
   D147      -3.12519  -0.00004   0.00000  -0.00160  -0.00160  -3.12679
   D148       3.10581  -0.00002   0.00000   0.00055   0.00055   3.10637
   D149      -0.01150   0.00001   0.00000   0.00083   0.00084  -0.01067
   D150       0.04469   0.00003   0.00000   0.00228   0.00228   0.04697
   D151      -3.10624   0.00005   0.00000   0.00078   0.00078  -3.10546
   D152      -3.12113   0.00000   0.00000   0.00200   0.00200  -3.11913
   D153       0.01112   0.00002   0.00000   0.00050   0.00050   0.01162
   D154       3.07185   0.00008   0.00000   0.00002   0.00003   3.07188
   D155      -0.03090   0.00004   0.00000   0.00025   0.00025  -0.03066
   D156      -0.06047   0.00006   0.00000   0.00152   0.00152  -0.05895
   D157       3.11996   0.00003   0.00000   0.00174   0.00174   3.12170
   D158      -0.03941  -0.00004   0.00000  -0.00309  -0.00308  -0.04250
   D159      -3.12165  -0.00011   0.00000  -0.00289  -0.00289  -3.12454
   D160       3.06280  -0.00001   0.00000  -0.00334  -0.00333   3.05947
   D161      -0.01943  -0.00008   0.00000  -0.00314  -0.00314  -0.02257
   D162       0.03253  -0.00004   0.00000  -0.00197  -0.00196   0.03057
   D163      -3.07249   0.00002   0.00000   0.00048   0.00048  -3.07201
   D164       3.12426  -0.00014   0.00000  -0.00338  -0.00337   3.12089
   D165       0.01924  -0.00008   0.00000  -0.00093  -0.00092   0.01831
   D166       3.04043  -0.00005   0.00000  -0.00123  -0.00122   3.03921
   D167      -0.12302  -0.00004   0.00000  -0.00484  -0.00484  -0.12786
   D168      -0.05134   0.00005   0.00000   0.00013   0.00012  -0.05121
   D169       3.06840   0.00006   0.00000  -0.00348  -0.00349   3.06491
   D170      -3.07781   0.00010   0.00000   0.00339   0.00339  -3.07443
   D171       0.05443   0.00009   0.00000   0.00297   0.00297   0.05740
   D172       0.02770   0.00005   0.00000   0.00095   0.00094   0.02865
   D173      -3.12324   0.00004   0.00000   0.00053   0.00052  -3.12271
   D174      -0.04220   0.00002   0.00000  -0.00020  -0.00020  -0.04240
   D175       3.12119  -0.00001   0.00000  -0.00133  -0.00133   3.11986
   D176       3.10881   0.00003   0.00000   0.00023   0.00022   3.10903
   D177      -0.01099  -0.00000   0.00000  -0.00090  -0.00090  -0.01189
   D178       0.00951  -0.00005   0.00000  -0.00059  -0.00059   0.00892
   D179      -3.11105  -0.00002   0.00000  -0.00148  -0.00147  -3.11252
   D180       3.12926  -0.00002   0.00000   0.00054   0.00054   3.12980
   D181       0.00870   0.00001   0.00000  -0.00035  -0.00034   0.00836
   D182       0.03711   0.00002   0.00000   0.00062   0.00061   0.03772
   D183      -3.08231   0.00000   0.00000   0.00436   0.00438  -3.07794
   D184      -3.12530  -0.00001   0.00000   0.00149   0.00149  -3.12381
   D185       0.03846  -0.00003   0.00000   0.00523   0.00525   0.04371
   D186       1.77803  -0.00011   0.00000  -0.02363  -0.02362   1.75442
   D187      -1.30662  -0.00013   0.00000  -0.01939  -0.01936  -1.32598
   D188      -1.38589  -0.00010   0.00000  -0.02735  -0.02735  -1.41324
   D189       1.81264  -0.00011   0.00000  -0.02311  -0.02309   1.78955
   D190      -0.05249  -0.00016   0.00000  -0.00717  -0.00719  -0.05968
   D191       3.10755  -0.00014   0.00000  -0.00378  -0.00377   3.10377
   D192       3.03547  -0.00014   0.00000  -0.01111  -0.01113   3.02434
   D193      -0.08767  -0.00013   0.00000  -0.00771  -0.00771  -0.09539
   D194       0.00148  -0.00003   0.00000  -0.00221  -0.00222  -0.00074
   D195      -3.14127   0.00001   0.00000  -0.00267  -0.00273   3.13918
   D196      -3.13980  -0.00003   0.00000   0.00002   0.00007  -3.13973
   D197       0.00063   0.00001   0.00000  -0.00043  -0.00045   0.00019
         Item               Value     Threshold  Converged?
 Maximum Force            0.001079     0.000450     NO 
 RMS     Force            0.000173     0.000300     YES
 Maximum Displacement     0.420211     0.001800     NO 
 RMS     Displacement     0.063482     0.001200     NO 
 Predicted change in Energy=-1.246805D-04
 GradGradGradGradGradGradGradGradGradGradGradGradGradGradGradGradGradGrad

 Stoichiometry    C32H19BrMnN3O3S2
 Framework group  C1[X(C32H19BrMnN3O3S2)]
 Deg. of freedom   177
 Full point group                 C1      NOp   1
 Largest Abelian subgroup         C1      NOp   1
 Largest concise Abelian subgroup C1      NOp   1
                         Standard orientation:                         
 ---------------------------------------------------------------------
 Center     Atomic      Atomic             Coordinates (Angstroms)
 Number     Number       Type             X           Y           Z
 ---------------------------------------------------------------------
      1         25           0        1.311742    1.057934    1.457154
      2          6           0        1.933225    2.677472    2.104951
      3          8           0        2.285520    3.678888    2.517229
      4          6           0        2.645505    0.105416    2.300055
      5          8           0        3.429377   -0.509049    2.855694
      6          6           0        0.284488    0.866458    2.910602
      7          7           0        0.706778   -0.667725    0.453025
      8          6           0        1.185114   -2.306357   -1.221948
      9          6           0       -0.086096   -2.854743   -1.076949
     10          6           0       -0.504517   -1.212326    0.605400
     11          1           0        1.898800   -2.706282   -1.942272
     12          1           0       -0.401895   -3.702417   -1.688335
     13          7           0        4.835377    1.743927    0.755030
     14          6           0        5.185176    0.679699    0.457203
     15          6           0        5.600747   -0.661088    0.136457
     16          6           0        5.184683   -1.253020   -1.065775
     17          6           0        5.564215   -2.561537   -1.348709
     18          6           0        6.391407   -1.376095    1.049032
     19          1           0        4.554189   -0.676696   -1.748080
     20          1           0        6.703374   -0.908405    1.984084
     21          7           0       -0.091405    2.030322    0.259859
     22          6           0       -0.536788    3.203122   -1.774872
     23          6           0       -1.905064    3.018481   -1.606908
     24          1           0       -0.136930    3.723579   -2.645080
     25          6           0        1.539502   -1.208954   -0.450045
     26          1           0        2.515877   -0.734110   -0.570067
     27          6           0        0.339966    2.681265   -0.832169
     28          1           0        1.419924    2.759427   -0.980653
     29          1           0        5.239566   -3.026584   -2.281298
     30          8           0       -0.388181    0.733010    3.827917
     31         16           0       -3.145886   -0.487546   -1.324941
     32         16           0       -6.137363   -1.341905   -0.598522
     33          6           0       -0.963901   -2.289220   -0.150507
     34          6           0       -2.366340   -2.751907    0.054587
     35          6           0       -2.630025   -3.968203    0.690376
     36          6           0       -3.940392   -4.357131    0.961410
     37          6           0       -5.005057   -3.531127    0.611534
     38          6           0       -4.761934   -2.333080   -0.064482
     39          6           0       -3.446692   -1.947763   -0.356052
     40          1           0       -1.795283   -4.602562    0.995285
     41          1           0       -4.133548   -5.302763    1.470795
     42          1           0       -6.030462   -3.817959    0.852932
     43          6           0       -4.235691    0.667463   -0.525836
     44          6           0       -5.552674    0.295187   -0.227622
     45          6           0       -6.433417    1.228948    0.324066
     46          6           0       -6.008347    2.536484    0.543794
     47          6           0       -4.693880    2.905815    0.263296
     48          6           0       -3.789660    1.973525   -0.251152
     49          1           0       -7.453923    0.929945    0.571498
     50          1           0       -6.703900    3.269598    0.955848
     51          1           0       -4.354466    3.924416    0.461500
     52          6           0       -2.359470    2.326711   -0.482356
     53          1           0       -2.614129    3.384042   -2.352348
     54          6           0       -1.410074    1.884326    0.435163
     55          1           0       -1.742904    1.372780    1.339485
     56          1           0       -1.161718   -0.771375    1.355405
     57          6           0        6.354949   -3.273479   -0.445585
     58          6           0        6.766807   -2.682187    0.750023
     59          1           0        7.383294   -3.242773    1.454993
     60          1           0        6.651657   -4.299474   -0.673258
     61         35           0        3.001638    1.296831   -2.857083
 ---------------------------------------------------------------------
 Rotational constants (GHZ):           0.1073241           0.0444752           0.0404139
 Basis read from rwf:  (5D, 7F)
 There are   800 symmetry adapted cartesian basis functions of A   symmetry.
 There are   749 symmetry adapted basis functions of A   symmetry.
   749 basis functions,  1349 primitive gaussians,   800 cartesian basis functions
   174 alpha electrons      174 beta electrons
       nuclear repulsion energy      6483.2542276858 Hartrees.
 NAtoms=   61 NActive=   61 NUniq=   61 SFac= 1.00D+00 NAtFMM=   60 NAOKFM=T Big=T
 Integral buffers will be    131072 words long.
 Raffenetti 2 integral format.
 Two-electron integral symmetry is turned on.
 Nuclear repulsion after empirical dispersion term =     6483.1912229003 Hartrees.
 ------------------------------------------------------------------------------
 Polarizable Continuum Model (PCM)
 =================================
 Model                : PCM.
 Atomic radii         : UFF (Universal Force Field).
 Polarization charges : Total charges.
 Charge compensation  : None.
 Solution method      : On-the-fly selection.
 Cavity type          : Scaled VdW (van der Waals Surface) (Alpha=1.100).
 Cavity algorithm     : GePol (No added spheres)
                        Default sphere list used, NSphG=   61.
                        Lebedev-Laikov grids with approx.  5.0 points / Ang**2.
                        Smoothing algorithm: York/Karplus (Gamma=1.0000).
                        Polarization charges: spherical gaussians, with
                                              point-specific exponents (IZeta= 3).
                        Self-potential: point-specific (ISelfS= 7).
                        Self-field    : sphere-specific E.n sum rule (ISelfD= 2).
 1st derivatives      : Analytical E(r).r(x)/FMM algorithm (CHGder, D1EAlg=3).
                        Cavity 1st derivative terms included.
 Solvent              : TetraHydroFuran, Eps=   7.425700 Eps(inf)=   1.974025
 ------------------------------------------------------------------------------
 One-electron integrals computed using PRISM.
 PrsmSu:  requested number of processors reduced to:  11 ShMem   1 Linda.
 NBasis=   749 RedAO= T EigKep=  2.26D-04  NBF=   749
 NBsUse=   749 1.00D-06 EigRej= -1.00D+00 NBFU=   749
 Initial guess from the checkpoint file:  "checkpoint.chk"
 B after Tr=     0.000000    0.000000   -0.000000
         Rot=    0.999978   -0.005334    0.001278    0.003685 Ang=  -0.76 deg.
 ExpMin= 3.93D-02 ExpMax= 2.77D+05 ExpMxC= 1.70D+04 IAcc=3 IRadAn=         5 AccDes= 0.00D+00
 Harris functional with IExCor= 4639 and IRadAn=       5 diagonalized for initial guess.
 HarFok:  IExCor= 4639 AccDes= 0.00D+00 IRadAn=         5 IDoV= 1 UseB2=F ITyADJ=14
 ICtDFT=  3500011 ScaDFX=  1.000000  1.000000  1.000000  1.000000
 FoFCou: FMM=F IPFlag=           0 FMFlag=      100000 FMFlg1=        2001
         NFxFlg=           0 DoJE=T BraDBF=F KetDBF=T FulRan=T
         wScrn=  0.000000 ICntrl=       500 IOpCl=  0 I1Cent=   200000004 NGrid=           0
         NMat0=    1 NMatS0=      1 NMatT0=    0 NMatD0=    1 NMtDS0=    0 NMtDT0=    0
 Petite list used in FoFCou.
 Requested convergence on RMS density matrix=1.00D-08 within 128 cycles.
 Requested convergence on MAX density matrix=1.00D-06.
 Requested convergence on             energy=1.00D-06.
 No special actions if energy rises.
 CoulSu:  requested number of processors reduced to:   7 ShMem   1 Linda.
 Inv3:  Mode=1 IEnd=    75330363.
 Iteration    1 A*A^-1 deviation from unit magnitude is 3.22D-15 for   1303.
 Iteration    1 A*A^-1 deviation from orthogonality  is 2.99D-15 for   4059   3884.
 Iteration    1 A^-1*A deviation from unit magnitude is 3.44D-15 for    728.
 Iteration    1 A^-1*A deviation from orthogonality  is 2.00D-15 for   3230   1047.
 CoulSu:  requested number of processors reduced to:   7 ShMem   1 Linda.
 CoulSu:  requested number of processors reduced to:   7 ShMem   1 Linda.
