 Entering Gaussian System, Link 0=g16
 Initial command:
 /home1/apps/gaussian/16rA.03/g16/l1.exe "/tmp/Gau-248444.inp" -scrdir="/tmp/"
 Entering Link 1 = /home1/apps/gaussian/16rA.03/g16/l1.exe PID=    248446.
  
 Copyright (c) 1988,1990,1992,1993,1995,1998,2003,2009,2016,
            Gaussian, Inc.  All Rights Reserved.
  
 This is part of the Gaussian(R) 16 program.  It is based on
 the Gaussian(R) 09 system (copyright 2009, Gaussian, Inc.),
 the Gaussian(R) 03 system (copyright 2003, Gaussian, Inc.),
 the Gaussian(R) 98 system (copyright 1998, Gaussian, Inc.),
 the Gaussian(R) 94 system (copyright 1995, Gaussian, Inc.),
 the Gaussian 92(TM) system (copyright 1992, Gaussian, Inc.),
 the Gaussian 90(TM) system (copyright 1990, Gaussian, Inc.),
 the Gaussian 88(TM) system (copyright 1988, Gaussian, Inc.),
 the Gaussian 86(TM) system (copyright 1986, Carnegie Mellon
 University), and the Gaussian 82(TM) system (copyright 1983,
 Carnegie Mellon University). Gaussian is a federally registered
 trademark of Gaussian, Inc.
  
 This software contains proprietary and confidential information,
 including trade secrets, belonging to Gaussian, Inc.
  
 This software is provided under written license and may be
 used, copied, transmitted, or stored only in accord with that
 written license.
  
 The following legend is applicable only to US Government
 contracts under FAR:
  
                    RESTRICTED RIGHTS LEGEND
  
 Use, reproduction and disclosure by the US Government is
 subject to restrictions as set forth in subparagraphs (a)
 and (c) of the Commercial Computer Software - Restricted
 Rights clause in FAR 52.227-19.
  
 Gaussian, Inc.
 340 Quinnipiac St., Bldg. 40, Wallingford CT 06492
  
  
 ---------------------------------------------------------------
 Warning -- This program may not be used in any manner that
 competes with the business of Gaussian, Inc. or will provide
 assistance to any competitor of Gaussian, Inc.  The licensee
 of this program is prohibited from giving any competitor of
 Gaussian, Inc. access to this program.  By using this program,
 the user acknowledges that Gaussian, Inc. is engaged in the
 business of creating and licensing software in the field of
 computational chemistry and represents and warrants to the
 licensee that it is not a competitor of Gaussian, Inc. and that
 it will not use this program in any manner prohibited above.
 ---------------------------------------------------------------
  

 Cite this work as:
 Gaussian 16, Revision A.03,
 M. J. Frisch, G. W. Trucks, H. B. Schlegel, G. E. Scuseria, 
 M. A. Robb, J. R. Cheeseman, G. Scalmani, V. Barone, 
 G. A. Petersson, H. Nakatsuji, X. Li, M. Caricato, A. V. Marenich, 
 J. Bloino, B. G. Janesko, R. Gomperts, B. Mennucci, H. P. Hratchian, 
 J. V. Ortiz, A. F. Izmaylov, J. L. Sonnenberg, D. Williams-Young, 
 F. Ding, F. Lipparini, F. Egidi, J. Goings, B. Peng, A. Petrone, 
 T. Henderson, D. Ranasinghe, V. G. Zakrzewski, J. Gao, N. Rega, 
 G. Zheng, W. Liang, M. Hada, M. Ehara, K. Toyota, R. Fukuda, 
 J. Hasegawa, M. Ishida, T. Nakajima, Y. Honda, O. Kitao, H. Nakai, 
 T. Vreven, K. Throssell, J. A. Montgomery, Jr., J. E. Peralta, 
 F. Ogliaro, M. J. Bearpark, J. J. Heyd, E. N. Brothers, K. N. Kudin, 
 V. N. Staroverov, T. A. Keith, R. Kobayashi, J. Normand, 
 K. Raghavachari, A. P. Rendell, J. C. Burant, S. S. Iyengar, 
 J. Tomasi, M. Cossi, J. M. Millam, M. Klene, C. Adamo, R. Cammi, 
 J. W. Ochterski, R. L. Martin, K. Morokuma, O. Farkas, 
 J. B. Foresman, and D. J. Fox, Gaussian, Inc., Wallingford CT, 2016.
 
 ******************************************
 Gaussian 16:  ES64L-G16RevA.03 25-Dec-2016
                19-Mar-2023 
 ******************************************
 %NProcShared=12
 Will use up to   12 processors via shared memory.
 %Chk=checkpoint.chk
 -----------------------------------------------
 # wB97XD Gen SCRF=(Solvent=TetraHydroFuran) Opt
 -----------------------------------------------
 1/18=20,19=15,26=3,38=1/1,3;
 2/9=110,12=2,17=6,18=5,40=1/2;
 3/5=7,11=2,25=1,30=1,70=2201,71=1,72=20,74=-58/1,2,3;
 4//1;
 5/5=2,38=5,53=20/2;
 6/7=2,8=2,9=2,10=2,28=1/1;
 7//1,2,3,16;
 1/18=20,19=15,26=3/3(2);
 2/9=110/2;
 99//99;
 2/9=110/2;
 3/5=7,6=1,11=2,25=1,30=1,70=2205,71=1,72=20,74=-58,82=7/1,2,3;
 4/5=5,16=3,69=1/1;
 5/5=2,38=5,53=20/2;
 7//1,2,3,16;
 1/18=20,19=15,26=3/3(-5);
 2/9=110/2;
 6/7=2,8=2,9=2,10=2,19=2,28=1/1;
 99/9=1/99;
 -----------------------
 Thian Prod Optimization
 -----------------------
 Symbolic Z-matrix:
 Charge =  0 Multiplicity = 1
 Mn                    2.24428  -1.55798  -1.06055 
 C                     3.00454  -3.23619  -0.98306 
 O                     3.47056  -4.27654  -0.97403 
 C                     3.72714  -0.93935  -1.98419 
 O                     4.62303  -0.59869  -2.59788 
 C                     1.44993  -1.98019  -2.61675 
 N                     1.52144   0.41969  -0.98365 
 C                     1.93229   2.70293  -0.3886 
 C                     0.62223   3.04822  -0.70712 
 C                     0.28326   0.77315  -1.34079 
 H                     2.64838   3.43863  -0.02101 
 H                     0.26554   4.07259  -0.57965 
 N                     2.60705  -0.5368    1.93258 
 C                     1.70925   0.01704   2.41027 
 C                     0.55201   0.67922   2.94503 
 C                    -0.42673  -0.07022   3.61412 
 C                    -1.57139   0.56392   4.08458 
 C                     0.39125   2.06006   2.76394 
 H                    -0.28587  -1.14145   3.76021 
 H                     1.16637   2.63579   2.25797 
 N                     0.65925  -2.27837   0.1538 
 C                    -0.02776  -3.41482   2.14883 
 C                    -1.36507  -3.13896   1.87345 
 H                     0.26419  -3.96678   3.04232 
 C                     2.33894   1.38307  -0.51796 
 H                     3.36112   1.10924  -0.23574 
 C                     0.95001  -2.95454   1.28061 
 H                     2.00464  -3.12394   1.49968 
 H                    -2.33725  -0.01613   4.60213 
 O                     0.91411  -2.23309  -3.59489 
 S                    -2.40158   0.59456   0.50097 
 S                    -5.39874   1.16994  -0.41741 
 C                    -0.23589   2.0576   -1.18517 
 C                    -1.65576   2.32632  -1.53991 
 C                    -1.95108   3.26552  -2.53395 
 C                    -3.2671    3.51819  -2.91138 
 C                    -4.31208   2.83412  -2.29808 
 C                    -4.03921   1.92522  -1.27307 
 C                    -2.71642   1.66567  -0.88853 
 H                    -1.13013   3.7863   -3.03103 
 H                    -3.47959   4.24211  -3.69979 
 H                    -5.34543   3.0103   -2.60309 
 C                    -3.49837  -0.76416   0.14374 
 C                    -4.81984  -0.49876  -0.2428 
 C                    -5.72442  -1.54542  -0.43652 
 C                    -5.32431  -2.85736  -0.20352 
 C                    -4.01382  -3.12861   0.17949 
 C                    -3.08152  -2.09687   0.33634 
 H                    -6.74387  -1.3253   -0.75915 
 H                    -6.0346   -3.67488  -0.33729 
 H                    -3.69409  -4.16062   0.33809 
 C                    -1.68206  -2.43579   0.71213 
 H                    -2.15333  -3.45854   2.55839 
 C                    -0.62923  -2.06723  -0.12624 
 H                    -0.86311  -1.59138  -1.07528 
 H                    -0.3453    0.00978  -1.79424 
 C                    -1.74012   1.9357    3.8921 
 C                    -0.76018   2.68167   3.2366 
 H                    -0.89145   3.75555   3.09379 
 H                    -2.64351   2.42796   4.25729 
 Br                    3.03863  -1.13577   0.49565 
 

 GradGradGradGradGradGradGradGradGradGradGradGradGradGradGradGradGradGrad
 Berny optimization.
 Initialization pass.
                           ----------------------------
                           !    Initial Parameters    !
                           ! (Angstroms and Degrees)  !
 --------------------------                            --------------------------
 ! Name  Definition              Value          Derivative Info.                !
 --------------------------------------------------------------------------------
 ! R1    R(1,2)                  1.844          estimate D2E/DX2                !
 ! R2    R(1,4)                  1.8533         estimate D2E/DX2                !
 ! R3    R(1,6)                  1.7975         estimate D2E/DX2                !
 ! R4    R(1,7)                  2.107          estimate D2E/DX2                !
 ! R5    R(1,21)                 2.1227         estimate D2E/DX2                !
 ! R6    R(1,61)                 1.7975         estimate D2E/DX2                !
 ! R7    R(2,3)                  1.14           estimate D2E/DX2                !
 ! R8    R(4,5)                  1.1381         estimate D2E/DX2                !
 ! R9    R(6,30)                 1.1436         estimate D2E/DX2                !
 ! R10   R(7,10)                 1.3363         estimate D2E/DX2                !
 ! R11   R(7,25)                 1.3466         estimate D2E/DX2                !
 ! R12   R(8,9)                  1.3917         estimate D2E/DX2                !
 ! R13   R(8,11)                 1.0905         estimate D2E/DX2                !
 ! R14   R(8,25)                 1.3871         estimate D2E/DX2                !
 ! R15   R(9,12)                 1.0922         estimate D2E/DX2                !
 ! R16   R(9,33)                 1.3951         estimate D2E/DX2                !
 ! R17   R(10,33)                1.3941         estimate D2E/DX2                !
 ! R18   R(10,56)                1.0879         estimate D2E/DX2                !
 ! R19   R(13,14)                1.158          estimate D2E/DX2                !
 ! R20   R(13,61)                1.6155         estimate D2E/DX2                !
 ! R21   R(14,15)                1.4365         estimate D2E/DX2                !
 ! R22   R(15,16)                1.4026         estimate D2E/DX2                !
 ! R23   R(15,18)                1.4019         estimate D2E/DX2                !
 ! R24   R(16,17)                1.3906         estimate D2E/DX2                !
 ! R25   R(16,19)                1.0903         estimate D2E/DX2                !
 ! R26   R(17,29)                1.0913         estimate D2E/DX2                !
 ! R27   R(17,57)                1.3955         estimate D2E/DX2                !
 ! R28   R(18,20)                1.0901         estimate D2E/DX2                !
 ! R29   R(18,58)                1.3913         estimate D2E/DX2                !
 ! R30   R(21,27)                1.3459         estimate D2E/DX2                !
 ! R31   R(21,54)                1.3354         estimate D2E/DX2                !
 ! R32   R(22,23)                1.393          estimate D2E/DX2                !
 ! R33   R(22,24)                1.0901         estimate D2E/DX2                !
 ! R34   R(22,27)                1.3863         estimate D2E/DX2                !
 ! R35   R(23,52)                1.3941         estimate D2E/DX2                !
 ! R36   R(23,53)                1.0921         estimate D2E/DX2                !
 ! R37   R(25,26)                1.0952         estimate D2E/DX2                !
 ! R38   R(27,28)                1.0904         estimate D2E/DX2                !
 ! R39   R(31,39)                1.7825         estimate D2E/DX2                !
 ! R40   R(31,43)                1.7823         estimate D2E/DX2                !
 ! R41   R(32,38)                1.7751         estimate D2E/DX2                !
 ! R42   R(32,44)                1.7749         estimate D2E/DX2                !
 ! R43   R(33,34)                1.488          estimate D2E/DX2                !
 ! R44   R(34,35)                1.3991         estimate D2E/DX2                !
 ! R45   R(34,39)                1.4092         estimate D2E/DX2                !
 ! R46   R(35,36)                1.3922         estimate D2E/DX2                !
 ! R47   R(35,40)                1.0919         estimate D2E/DX2                !
 ! R48   R(36,37)                1.3914         estimate D2E/DX2                !
 ! R49   R(36,41)                1.0912         estimate D2E/DX2                !
 ! R50   R(37,38)                1.3968         estimate D2E/DX2                !
 ! R51   R(37,42)                1.0917         estimate D2E/DX2                !
 ! R52   R(38,39)                1.4018         estimate D2E/DX2                !
 ! R53   R(43,44)                1.4022         estimate D2E/DX2                !
 ! R54   R(43,48)                1.4096         estimate D2E/DX2                !
 ! R55   R(44,45)                1.3969         estimate D2E/DX2                !
 ! R56   R(45,46)                1.3912         estimate D2E/DX2                !
 ! R57   R(45,49)                1.0917         estimate D2E/DX2                !
 ! R58   R(46,47)                1.392          estimate D2E/DX2                !
 ! R59   R(46,50)                1.0912         estimate D2E/DX2                !
 ! R60   R(47,48)                1.3994         estimate D2E/DX2                !
 ! R61   R(47,51)                1.092          estimate D2E/DX2                !
 ! R62   R(48,52)                1.4881         estimate D2E/DX2                !
 ! R63   R(52,54)                1.3954         estimate D2E/DX2                !
 ! R64   R(54,55)                1.0871         estimate D2E/DX2                !
 ! R65   R(57,58)                1.3951         estimate D2E/DX2                !
 ! R66   R(57,60)                1.0917         estimate D2E/DX2                !
 ! R67   R(58,59)                1.0913         estimate D2E/DX2                !
 ! A1    A(2,1,4)               89.705          estimate D2E/DX2                !
 ! A2    A(2,1,6)               90.2756         estimate D2E/DX2                !
 ! A3    A(2,1,21)              88.5651         estimate D2E/DX2                !
 ! A4    A(2,1,61)              89.7244         estimate D2E/DX2                !
 ! A5    A(4,1,6)               90.0299         estimate D2E/DX2                !
 ! A6    A(4,1,7)               88.818          estimate D2E/DX2                !
 ! A7    A(4,1,61)              89.9701         estimate D2E/DX2                !
 ! A8    A(6,1,7)               95.7657         estimate D2E/DX2                !
 ! A9    A(6,1,21)              94.9095         estimate D2E/DX2                !
 ! A10   A(7,1,21)              92.3781         estimate D2E/DX2                !
 ! A11   A(7,1,61)              84.2343         estimate D2E/DX2                !
 ! A12   A(21,1,61)             85.0905         estimate D2E/DX2                !
 ! A13   A(1,7,10)             123.8072         estimate D2E/DX2                !
 ! A14   A(1,7,25)             118.4152         estimate D2E/DX2                !
 ! A15   A(10,7,25)            117.7572         estimate D2E/DX2                !
 ! A16   A(9,8,11)             121.8638         estimate D2E/DX2                !
 ! A17   A(9,8,25)             119.3855         estimate D2E/DX2                !
 ! A18   A(11,8,25)            118.7412         estimate D2E/DX2                !
 ! A19   A(8,9,12)             120.8914         estimate D2E/DX2                !
 ! A20   A(8,9,33)             118.7674         estimate D2E/DX2                !
 ! A21   A(12,9,33)            120.3395         estimate D2E/DX2                !
 ! A22   A(7,10,33)            123.9818         estimate D2E/DX2                !
 ! A23   A(7,10,56)            117.4634         estimate D2E/DX2                !
 ! A24   A(33,10,56)           118.5473         estimate D2E/DX2                !
 ! A25   A(14,13,61)           138.7093         estimate D2E/DX2                !
 ! A26   A(14,15,16)           119.5649         estimate D2E/DX2                !
 ! A27   A(14,15,18)           119.8889         estimate D2E/DX2                !
 ! A28   A(16,15,18)           120.5238         estimate D2E/DX2                !
 ! A29   A(15,16,17)           119.4802         estimate D2E/DX2                !
 ! A30   A(15,16,19)           119.9178         estimate D2E/DX2                !
 ! A31   A(17,16,19)           120.6019         estimate D2E/DX2                !
 ! A32   A(16,17,29)           119.7194         estimate D2E/DX2                !
 ! A33   A(16,17,57)           120.0765         estimate D2E/DX2                !
 ! A34   A(29,17,57)           120.204          estimate D2E/DX2                !
 ! A35   A(15,18,20)           119.9098         estimate D2E/DX2                !
 ! A36   A(15,18,58)           119.4129         estimate D2E/DX2                !
 ! A37   A(20,18,58)           120.6772         estimate D2E/DX2                !
 ! A38   A(1,21,27)            119.2178         estimate D2E/DX2                !
 ! A39   A(1,21,54)            123.152          estimate D2E/DX2                !
 ! A40   A(27,21,54)           117.6103         estimate D2E/DX2                !
 ! A41   A(23,22,24)           121.2958         estimate D2E/DX2                !
 ! A42   A(23,22,27)           119.1816         estimate D2E/DX2                !
 ! A43   A(24,22,27)           119.5108         estimate D2E/DX2                !
 ! A44   A(22,23,52)           118.8727         estimate D2E/DX2                !
 ! A45   A(22,23,53)           120.7318         estimate D2E/DX2                !
 ! A46   A(52,23,53)           120.3931         estimate D2E/DX2                !
 ! A47   A(7,25,8)             122.3443         estimate D2E/DX2                !
 ! A48   A(7,25,26)            118.4802         estimate D2E/DX2                !
 ! A49   A(8,25,26)            119.1752         estimate D2E/DX2                !
 ! A50   A(21,27,22)           122.6014         estimate D2E/DX2                !
 ! A51   A(21,27,28)           117.0785         estimate D2E/DX2                !
 ! A52   A(22,27,28)           120.317          estimate D2E/DX2                !
 ! A53   A(39,31,43)           101.1374         estimate D2E/DX2                !
 ! A54   A(38,32,44)           101.3996         estimate D2E/DX2                !
 ! A55   A(9,33,10)            117.6085         estimate D2E/DX2                !
 ! A56   A(9,33,34)            122.7112         estimate D2E/DX2                !
 ! A57   A(10,33,34)           119.6775         estimate D2E/DX2                !
 ! A58   A(33,34,35)           119.4742         estimate D2E/DX2                !
 ! A59   A(33,34,39)           121.5584         estimate D2E/DX2                !
 ! A60   A(35,34,39)           118.9645         estimate D2E/DX2                !
 ! A61   A(34,35,36)           120.9295         estimate D2E/DX2                !
 ! A62   A(34,35,40)           119.0074         estimate D2E/DX2                !
 ! A63   A(36,35,40)           120.0484         estimate D2E/DX2                !
 ! A64   A(35,36,37)           120.0793         estimate D2E/DX2                !
 ! A65   A(35,36,41)           120.0229         estimate D2E/DX2                !
 ! A66   A(37,36,41)           119.891          estimate D2E/DX2                !
 ! A67   A(36,37,38)           119.7766         estimate D2E/DX2                !
 ! A68   A(36,37,42)           120.5548         estimate D2E/DX2                !
 ! A69   A(38,37,42)           119.6646         estimate D2E/DX2                !
 ! A70   A(32,38,37)           118.7481         estimate D2E/DX2                !
 ! A71   A(32,38,39)           120.7785         estimate D2E/DX2                !
 ! A72   A(37,38,39)           120.4051         estimate D2E/DX2                !
 ! A73   A(31,39,34)           120.6052         estimate D2E/DX2                !
 ! A74   A(31,39,38)           119.458          estimate D2E/DX2                !
 ! A75   A(34,39,38)           119.7794         estimate D2E/DX2                !
 ! A76   A(31,43,44)           119.4            estimate D2E/DX2                !
 ! A77   A(31,43,48)           120.7558         estimate D2E/DX2                !
 ! A78   A(44,43,48)           119.6909         estimate D2E/DX2                !
 ! A79   A(32,44,43)           120.8284         estimate D2E/DX2                !
 ! A80   A(32,44,45)           118.6592         estimate D2E/DX2                !
 ! A81   A(43,44,45)           120.4441         estimate D2E/DX2                !
 ! A82   A(44,45,46)           119.8088         estimate D2E/DX2                !
 ! A83   A(44,45,49)           119.6445         estimate D2E/DX2                !
 ! A84   A(46,45,49)           120.5431         estimate D2E/DX2                !
 ! A85   A(45,46,47)           120.0392         estimate D2E/DX2                !
 ! A86   A(45,46,50)           119.9172         estimate D2E/DX2                !
 ! A87   A(47,46,50)           120.0359         estimate D2E/DX2                !
 ! A88   A(46,47,48)           120.9559         estimate D2E/DX2                !
 ! A89   A(46,47,51)           119.9854         estimate D2E/DX2                !
 ! A90   A(48,47,51)           119.0417         estimate D2E/DX2                !
 ! A91   A(43,48,47)           118.995          estimate D2E/DX2                !
 ! A92   A(43,48,52)           121.8656         estimate D2E/DX2                !
 ! A93   A(47,48,52)           119.1375         estimate D2E/DX2                !
 ! A94   A(23,52,48)           122.6193         estimate D2E/DX2                !
 ! A95   A(23,52,54)           117.5249         estimate D2E/DX2                !
 ! A96   A(48,52,54)           119.8457         estimate D2E/DX2                !
 ! A97   A(21,54,52)           124.0739         estimate D2E/DX2                !
 ! A98   A(21,54,55)           117.3785         estimate D2E/DX2                !
 ! A99   A(52,54,55)           118.541          estimate D2E/DX2                !
 ! A100  A(17,57,58)           120.364          estimate D2E/DX2                !
 ! A101  A(17,57,60)           119.8139         estimate D2E/DX2                !
 ! A102  A(58,57,60)           119.822          estimate D2E/DX2                !
 ! A103  A(18,58,57)           120.1351         estimate D2E/DX2                !
 ! A104  A(18,58,59)           119.6549         estimate D2E/DX2                !
 ! A105  A(57,58,59)           120.2098         estimate D2E/DX2                !
 ! A106  A(1,61,13)            137.6545         estimate D2E/DX2                !
 ! A107  L(2,1,7,4,-1)         178.5229         estimate D2E/DX2                !
 ! A108  L(4,1,21,2,-1)        178.27           estimate D2E/DX2                !
 ! A109  L(6,1,61,2,-1)        180.0            estimate D2E/DX2                !
 ! A110  L(1,2,3,22,-1)        181.2922         estimate D2E/DX2                !
 ! A111  L(1,4,5,8,-1)         182.2733         estimate D2E/DX2                !
 ! A112  L(1,6,30,10,-1)       178.4418         estimate D2E/DX2                !
 ! A113  L(13,14,15,7,-1)      177.6321         estimate D2E/DX2                !
 ! A114  L(2,1,7,4,-2)         186.0417         estimate D2E/DX2                !
 ! A115  L(4,1,21,2,-2)        175.0674         estimate D2E/DX2                !
 ! A116  L(6,1,61,2,-2)        180.0            estimate D2E/DX2                !
 ! A117  L(1,2,3,22,-2)        178.4731         estimate D2E/DX2                !
 ! A118  L(1,4,5,8,-2)         182.2559         estimate D2E/DX2                !
 ! A119  L(1,6,30,10,-2)       181.0069         estimate D2E/DX2                !
 ! A120  L(13,14,15,7,-2)      177.9871         estimate D2E/DX2                !
 ! D1    D(4,1,7,10)           129.7655         estimate D2E/DX2                !
 ! D2    D(4,1,7,25)           -51.9154         estimate D2E/DX2                !
 ! D3    D(6,1,7,10)            39.8548         estimate D2E/DX2                !
 ! D4    D(6,1,7,25)          -141.8261         estimate D2E/DX2                !
 ! D5    D(21,1,7,10)          -55.3251         estimate D2E/DX2                !
 ! D6    D(21,1,7,25)          122.994          estimate D2E/DX2                !
 ! D7    D(61,1,7,10)         -140.1452         estimate D2E/DX2                !
 ! D8    D(61,1,7,25)           38.1739         estimate D2E/DX2                !
 ! D9    D(2,1,21,27)           49.275          estimate D2E/DX2                !
 ! D10   D(2,1,21,54)         -132.3864         estimate D2E/DX2                !
 ! D11   D(6,1,21,27)          139.4284         estimate D2E/DX2                !
 ! D12   D(6,1,21,54)          -42.233          estimate D2E/DX2                !
 ! D13   D(7,1,21,27)         -124.5741         estimate D2E/DX2                !
 ! D14   D(7,1,21,54)           53.7645         estimate D2E/DX2                !
 ! D15   D(61,1,21,27)         -40.5716         estimate D2E/DX2                !
 ! D16   D(61,1,21,54)         137.767          estimate D2E/DX2                !
 ! D17   D(2,1,61,13)         -127.8975         estimate D2E/DX2                !
 ! D18   D(4,1,61,13)          142.3974         estimate D2E/DX2                !
 ! D19   D(7,1,61,13)           53.5824         estimate D2E/DX2                !
 ! D20   D(21,1,61,13)         -39.3141         estimate D2E/DX2                !
 ! D21   D(1,7,10,33)          174.3087         estimate D2E/DX2                !
 ! D22   D(1,7,10,56)           -6.706          estimate D2E/DX2                !
 ! D23   D(25,7,10,33)          -4.0207         estimate D2E/DX2                !
 ! D24   D(25,7,10,56)         174.9646         estimate D2E/DX2                !
 ! D25   D(1,7,25,8)          -177.7198         estimate D2E/DX2                !
 ! D26   D(1,7,25,26)            2.4682         estimate D2E/DX2                !
 ! D27   D(10,7,25,8)            0.7019         estimate D2E/DX2                !
 ! D28   D(10,7,25,26)        -179.1101         estimate D2E/DX2                !
 ! D29   D(11,8,9,12)           -1.1187         estimate D2E/DX2                !
 ! D30   D(11,8,9,33)          179.3515         estimate D2E/DX2                !
 ! D31   D(25,8,9,12)          177.7417         estimate D2E/DX2                !
 ! D32   D(25,8,9,33)           -1.7882         estimate D2E/DX2                !
 ! D33   D(9,8,25,7)             2.1435         estimate D2E/DX2                !
 ! D34   D(9,8,25,26)         -178.0458         estimate D2E/DX2                !
 ! D35   D(11,8,25,7)         -178.9604         estimate D2E/DX2                !
 ! D36   D(11,8,25,26)           0.8503         estimate D2E/DX2                !
 ! D37   D(8,9,33,10)           -1.2053         estimate D2E/DX2                !
 ! D38   D(8,9,33,34)          179.4065         estimate D2E/DX2                !
 ! D39   D(12,9,33,10)         179.2622         estimate D2E/DX2                !
 ! D40   D(12,9,33,34)          -0.126          estimate D2E/DX2                !
 ! D41   D(7,10,33,9)            4.2895         estimate D2E/DX2                !
 ! D42   D(7,10,33,34)        -176.303          estimate D2E/DX2                !
 ! D43   D(56,10,33,9)        -174.6855         estimate D2E/DX2                !
 ! D44   D(56,10,33,34)          4.722          estimate D2E/DX2                !
 ! D45   D(61,13,15,16)         95.2776         estimate D2E/DX2                !
 ! D46   D(61,13,15,18)        -81.4918         estimate D2E/DX2                !
 ! D47   D(14,13,61,1)         -15.4282         estimate D2E/DX2                !
 ! D48   D(14,15,16,17)       -177.4639         estimate D2E/DX2                !
 ! D49   D(14,15,16,19)          2.4728         estimate D2E/DX2                !
 ! D50   D(18,15,16,17)          0.814          estimate D2E/DX2                !
 ! D51   D(18,15,16,19)       -179.2493         estimate D2E/DX2                !
 ! D52   D(14,15,18,20)         -2.8074         estimate D2E/DX2                !
 ! D53   D(14,15,18,58)        177.3017         estimate D2E/DX2                !
 ! D54   D(16,15,18,20)        178.9203         estimate D2E/DX2                !
 ! D55   D(16,15,18,58)         -0.9706         estimate D2E/DX2                !
 ! D56   D(15,16,17,29)        179.7533         estimate D2E/DX2                !
 ! D57   D(15,16,17,57)         -0.0931         estimate D2E/DX2                !
 ! D58   D(19,16,17,29)         -0.183          estimate D2E/DX2                !
 ! D59   D(19,16,17,57)        179.9706         estimate D2E/DX2                !
 ! D60   D(16,17,57,58)         -0.4664         estimate D2E/DX2                !
 ! D61   D(16,17,57,60)        179.5899         estimate D2E/DX2                !
 ! D62   D(29,17,57,58)        179.688          estimate D2E/DX2                !
 ! D63   D(29,17,57,60)         -0.2558         estimate D2E/DX2                !
 ! D64   D(15,18,58,57)          0.4073         estimate D2E/DX2                !
 ! D65   D(15,18,58,59)       -179.7254         estimate D2E/DX2                !
 ! D66   D(20,18,58,57)       -179.4827         estimate D2E/DX2                !
 ! D67   D(20,18,58,59)          0.3845         estimate D2E/DX2                !
 ! D68   D(1,21,27,22)         177.6653         estimate D2E/DX2                !
 ! D69   D(1,21,27,28)          -1.7            estimate D2E/DX2                !
 ! D70   D(54,21,27,22)         -0.765          estimate D2E/DX2                !
 ! D71   D(54,21,27,28)        179.8697         estimate D2E/DX2                !
 ! D72   D(1,21,54,52)        -174.5413         estimate D2E/DX2                !
 ! D73   D(1,21,54,55)           6.4045         estimate D2E/DX2                !
 ! D74   D(27,21,54,52)          3.8224         estimate D2E/DX2                !
 ! D75   D(27,21,54,55)       -175.2319         estimate D2E/DX2                !
 ! D76   D(24,22,23,52)       -179.6392         estimate D2E/DX2                !
 ! D77   D(24,22,23,53)          0.9304         estimate D2E/DX2                !
 ! D78   D(27,22,23,52)          1.6163         estimate D2E/DX2                !
 ! D79   D(27,22,23,53)       -177.8141         estimate D2E/DX2                !
 ! D80   D(23,22,27,21)         -1.8938         estimate D2E/DX2                !
 ! D81   D(23,22,27,28)        177.4515         estimate D2E/DX2                !
 ! D82   D(24,22,27,21)        179.3389         estimate D2E/DX2                !
 ! D83   D(24,22,27,28)         -1.3157         estimate D2E/DX2                !
 ! D84   D(22,23,52,48)        179.9707         estimate D2E/DX2                !
 ! D85   D(22,23,52,54)          1.1277         estimate D2E/DX2                !
 ! D86   D(53,23,52,48)         -0.5969         estimate D2E/DX2                !
 ! D87   D(53,23,52,54)       -179.44           estimate D2E/DX2                !
 ! D88   D(43,31,39,34)       -138.2044         estimate D2E/DX2                !
 ! D89   D(43,31,39,38)         46.3663         estimate D2E/DX2                !
 ! D90   D(39,31,43,44)        -46.3596         estimate D2E/DX2                !
 ! D91   D(39,31,43,48)        138.1539         estimate D2E/DX2                !
 ! D92   D(44,32,38,37)        139.4043         estimate D2E/DX2                !
 ! D93   D(44,32,38,39)        -43.5906         estimate D2E/DX2                !
 ! D94   D(38,32,44,43)         43.591          estimate D2E/DX2                !
 ! D95   D(38,32,44,45)       -139.4037         estimate D2E/DX2                !
 ! D96   D(9,33,34,35)          59.7269         estimate D2E/DX2                !
 ! D97   D(9,33,34,39)        -119.6477         estimate D2E/DX2                !
 ! D98   D(10,33,34,35)       -119.6491         estimate D2E/DX2                !
 ! D99   D(10,33,34,39)         60.9763         estimate D2E/DX2                !
 ! D100  D(33,34,35,36)        178.5098         estimate D2E/DX2                !
 ! D101  D(33,34,35,40)         -0.094          estimate D2E/DX2                !
 ! D102  D(39,34,35,36)         -2.0993         estimate D2E/DX2                !
 ! D103  D(39,34,35,40)        179.2969         estimate D2E/DX2                !
 ! D104  D(33,34,39,31)          6.0124         estimate D2E/DX2                !
 ! D105  D(33,34,39,38)       -178.5729         estimate D2E/DX2                !
 ! D106  D(35,34,39,31)       -173.3652         estimate D2E/DX2                !
 ! D107  D(35,34,39,38)          2.0494         estimate D2E/DX2                !
 ! D108  D(34,35,36,37)          0.0453         estimate D2E/DX2                !
 ! D109  D(34,35,36,41)       -179.0071         estimate D2E/DX2                !
 ! D110  D(40,35,36,37)        178.6346         estimate D2E/DX2                !
 ! D111  D(40,35,36,41)         -0.4178         estimate D2E/DX2                !
 ! D112  D(35,36,37,38)          2.0636         estimate D2E/DX2                !
 ! D113  D(35,36,37,42)       -178.6629         estimate D2E/DX2                !
 ! D114  D(41,36,37,38)       -178.8827         estimate D2E/DX2                !
 ! D115  D(41,36,37,42)          0.3908         estimate D2E/DX2                !
 ! D116  D(36,37,38,32)        174.9207         estimate D2E/DX2                !
 ! D117  D(36,37,38,39)         -2.0959         estimate D2E/DX2                !
 ! D118  D(42,37,38,32)         -4.3593         estimate D2E/DX2                !
 ! D119  D(42,37,38,39)        178.6241         estimate D2E/DX2                !
 ! D120  D(32,38,39,31)         -1.4628         estimate D2E/DX2                !
 ! D121  D(32,38,39,34)       -176.9304         estimate D2E/DX2                !
 ! D122  D(37,38,39,31)        175.4926         estimate D2E/DX2                !
 ! D123  D(37,38,39,34)          0.0251         estimate D2E/DX2                !
 ! D124  D(31,43,44,32)          1.4801         estimate D2E/DX2                !
 ! D125  D(31,43,44,45)       -175.4718         estimate D2E/DX2                !
 ! D126  D(48,43,44,32)        177.0152         estimate D2E/DX2                !
 ! D127  D(48,43,44,45)          0.0633         estimate D2E/DX2                !
 ! D128  D(31,43,48,47)        173.363          estimate D2E/DX2                !
 ! D129  D(31,43,48,52)         -6.1319         estimate D2E/DX2                !
 ! D130  D(44,43,48,47)         -2.1104         estimate D2E/DX2                !
 ! D131  D(44,43,48,52)        178.3947         estimate D2E/DX2                !
 ! D132  D(32,44,45,46)       -174.9685         estimate D2E/DX2                !
 ! D133  D(32,44,45,49)          4.3496         estimate D2E/DX2                !
 ! D134  D(43,44,45,46)          2.0487         estimate D2E/DX2                !
 ! D135  D(43,44,45,49)       -178.6332         estimate D2E/DX2                !
 ! D136  D(44,45,46,47)         -2.0829         estimate D2E/DX2                !
 ! D137  D(44,45,46,50)        178.9218         estimate D2E/DX2                !
 ! D138  D(49,45,46,47)        178.6051         estimate D2E/DX2                !
 ! D139  D(49,45,46,50)         -0.3902         estimate D2E/DX2                !
 ! D140  D(45,46,47,48)          0.0007         estimate D2E/DX2                !
 ! D141  D(45,46,47,51)       -178.4841         estimate D2E/DX2                !
 ! D142  D(50,46,47,48)        178.9948         estimate D2E/DX2                !
 ! D143  D(50,46,47,51)          0.51           estimate D2E/DX2                !
 ! D144  D(46,47,48,43)          2.095          estimate D2E/DX2                !
 ! D145  D(46,47,48,52)       -178.396          estimate D2E/DX2                !
 ! D146  D(51,47,48,43)       -179.4061         estimate D2E/DX2                !
 ! D147  D(51,47,48,52)          0.1028         estimate D2E/DX2                !
 ! D148  D(43,48,52,23)        121.4608         estimate D2E/DX2                !
 ! D149  D(43,48,52,54)        -59.7221         estimate D2E/DX2                !
 ! D150  D(47,48,52,23)        -58.0334         estimate D2E/DX2                !
 ! D151  D(47,48,52,54)        120.7837         estimate D2E/DX2                !
 ! D152  D(23,52,54,21)         -4.0222         estimate D2E/DX2                !
 ! D153  D(23,52,54,55)        175.0218         estimate D2E/DX2                !
 ! D154  D(48,52,54,21)        177.1012         estimate D2E/DX2                !
 ! D155  D(48,52,54,55)         -3.8548         estimate D2E/DX2                !
 ! D156  D(17,57,58,18)          0.3074         estimate D2E/DX2                !
 ! D157  D(17,57,58,59)       -179.5591         estimate D2E/DX2                !
 ! D158  D(60,57,58,18)       -179.7488         estimate D2E/DX2                !
 ! D159  D(60,57,58,59)          0.3847         estimate D2E/DX2                !
 --------------------------------------------------------------------------------
 Trust Radius=3.00D-01 FncErr=1.00D-07 GrdErr=1.00D-06 EigMax=2.50D+02 EigMin=1.00D-04
 Number of steps in this run=    356 maximum allowed number of steps=    366.
 GradGradGradGradGradGradGradGradGradGradGradGradGradGradGradGradGradGrad

 Stoichiometry    C32H19BrMnN3O3S2
 Framework group  C1[X(C32H19BrMnN3O3S2)]
 Deg. of freedom   177
 Full point group                 C1      NOp   1
 Largest Abelian subgroup         C1      NOp   1
 Largest concise Abelian subgroup C1      NOp   1
                         Standard orientation:                         
 ---------------------------------------------------------------------
 Center     Atomic      Atomic             Coordinates (Angstroms)
 Number     Number       Type             X           Y           Z
 ---------------------------------------------------------------------
      1         25           0       -2.814595    0.038988   -1.077200
      2          6           0       -4.062920    1.347901   -1.436084
      3          8           0       -4.832537    2.147748   -1.695941
      4          6           0       -4.044993   -1.256233   -1.570377
      5          8           0       -4.799853   -2.027814   -1.931120
      6          6           0       -2.224135    0.125037   -2.772771
      7          7           0       -1.504474   -1.497233   -0.474530
      8          6           0       -1.163816   -3.462328    0.851521
      9          6           0        0.181848   -3.498321    0.498203
     10          6           0       -0.225203   -1.574394   -0.852797
     11          1           0       -1.604524   -4.205914    1.516364
     12          1           0        0.845345   -4.269724    0.895080
     13          7           0       -2.778860    0.024413    2.105837
     14          6           0       -1.743193   -0.050610    2.618421
     15          6           0       -0.426114   -0.128194    3.186683
     16          6           0        0.279741    1.052316    3.461357
     17          6           0        1.574812    0.974598    3.961837
     18          6           0        0.157672   -1.379560    3.428792
     19          1           0       -0.188358    2.020301    3.280800
     20          1           0       -0.406470   -2.290491    3.228225
     21          7           0       -1.513608    1.552728   -0.354742
     22          6           0       -1.180546    3.440808    1.083275
     23          6           0        0.169950    3.489431    0.745479
     24          1           0       -1.613932    4.150799    1.787763
     25          6           0       -1.967806   -2.441306    0.366486
     26          1           0       -3.018493   -2.397945    0.672512
     27          6           0       -1.980417    2.452750    0.530412
     28          1           0       -3.030260    2.371901    0.813683
     29          1           0        2.129031    1.890599    4.173112
     30          8           0       -1.814404    0.178550   -3.839107
     31         16           0        2.302275   -0.015913    0.494554
     32         16           0        5.309623    0.030273   -0.559578
     33          6           0        0.674898   -2.522200   -0.367998
     34          6           0        2.099954   -2.469867   -0.792941
     35          6           0        2.656493   -3.559623   -1.471257
     36          6           0        3.977500   -3.530693   -1.909787
     37          6           0        4.765714   -2.408260   -1.675346
     38          6           0        4.240616   -1.328733   -0.961150
     39          6           0        2.911157   -1.351081   -0.517244
     40          1           0        2.031732   -4.431643   -1.675016
     41          1           0        4.391685   -4.382519   -2.451673
     42          1           0        5.795808   -2.368548   -2.034792
     43          6           0        2.908274    1.399915   -0.402591
     44          6           0        4.238282    1.415958   -0.846386
     45          6           0        4.763340    2.551327   -1.468126
     46          6           0        3.975133    3.688901   -1.610266
     47          6           0        2.653627    3.680100   -1.172981
     48          6           0        2.096851    2.537664   -0.587214
     49          1           0        5.793742    2.541721   -1.828686
     50          1           0        4.389134    4.582681   -2.079841
     51          1           0        2.028386    4.565209   -1.307419
     52          6           0        0.669486    2.561234   -0.166951
     53          1           0        0.830714    4.234809    1.193181
     54          6           0       -0.229914    1.643598   -0.711169
     55          1           0        0.123318    0.966268   -1.484647
     56          1           0        0.122055   -0.860275   -1.596359
     57          6           0        2.163087   -0.270166    4.189403
     58          6           0        1.455258   -1.443341    3.926596
     59          1           0        1.915156   -2.415385    4.112255
     60          1           0        3.182470   -0.326196    4.576073
     61         35           0       -3.405055   -0.047061    0.618371
 ---------------------------------------------------------------------
 Rotational constants (GHZ):           0.1100143           0.0613472           0.0588251
 General basis read from cards:  (5D, 7F)
 There are   800 symmetry adapted cartesian basis functions of A   symmetry.
 There are   749 symmetry adapted basis functions of A   symmetry.
   749 basis functions,  1349 primitive gaussians,   800 cartesian basis functions
   174 alpha electrons      174 beta electrons
       nuclear repulsion energy      7225.9511121585 Hartrees.
 NAtoms=   61 NActive=   61 NUniq=   61 SFac= 1.00D+00 NAtFMM=   60 NAOKFM=T Big=T
 Integral buffers will be    131072 words long.
 Raffenetti 2 integral format.
 Two-electron integral symmetry is turned on.
 Nuclear repulsion after empirical dispersion term =     7225.8793446973 Hartrees.
 ------------------------------------------------------------------------------
 Polarizable Continuum Model (PCM)
 =================================
 Model                : PCM.
 Atomic radii         : UFF (Universal Force Field).
 Polarization charges : Total charges.
 Charge compensation  : None.
 Solution method      : On-the-fly selection.
 Cavity type          : Scaled VdW (van der Waals Surface) (Alpha=1.100).
 Cavity algorithm     : GePol (No added spheres)
                        Default sphere list used, NSphG=   61.
                        Lebedev-Laikov grids with approx.  5.0 points / Ang**2.
                        Smoothing algorithm: York/Karplus (Gamma=1.0000).
                        Polarization charges: spherical gaussians, with
                                              point-specific exponents (IZeta= 3).
                        Self-potential: point-specific (ISelfS= 7).
                        Self-field    : sphere-specific E.n sum rule (ISelfD= 2).
 1st derivatives      : Analytical E(r).r(x)/FMM algorithm (CHGder, D1EAlg=3).
                        Cavity 1st derivative terms included.
 Solvent              : TetraHydroFuran, Eps=   7.425700 Eps(inf)=   1.974025
 ------------------------------------------------------------------------------
 One-electron integrals computed using PRISM.
 PrsmSu:  requested number of processors reduced to:  11 ShMem   1 Linda.
 NBasis=   749 RedAO= T EigKep=  2.25D-04  NBF=   749
 NBsUse=   749 1.00D-06 EigRej= -1.00D+00 NBFU=   749
 ExpMin= 3.93D-02 ExpMax= 2.77D+05 ExpMxC= 1.70D+04 IAcc=3 IRadAn=         5 AccDes= 0.00D+00
 Harris functional with IExCor= 4639 and IRadAn=       5 diagonalized for initial guess.
 HarFok:  IExCor= 4639 AccDes= 0.00D+00 IRadAn=         5 IDoV= 1 UseB2=F ITyADJ=14
 ICtDFT=  3500011 ScaDFX=  1.000000  1.000000  1.000000  1.000000
 FoFCou: FMM=F IPFlag=           0 FMFlag=      100000 FMFlg1=        2001
         NFxFlg=           0 DoJE=T BraDBF=F KetDBF=T FulRan=T
         wScrn=  0.000000 ICntrl=       500 IOpCl=  0 I1Cent=   200000004 NGrid=           0
         NMat0=    1 NMatS0=      1 NMatT0=    0 NMatD0=    1 NMtDS0=    0 NMtDT0=    0
 Petite list used in FoFCou.
 Requested convergence on RMS density matrix=1.00D-08 within 128 cycles.
 Requested convergence on MAX density matrix=1.00D-06.
 Requested convergence on             energy=1.00D-06.
 No special actions if energy rises.
 Inv3:  Mode=1 IEnd=    58264947.
 Iteration    1 A*A^-1 deviation from unit magnitude is 3.77D-15 for   1655.
 Iteration    1 A*A^-1 deviation from orthogonality  is 3.11D-15 for   2758   1963.
 Iteration    1 A^-1*A deviation from unit magnitude is 3.33D-15 for    576.
 Iteration    1 A^-1*A deviation from orthogonality  is 2.44D-15 for   4021   1387.
 EnCoef did     5 forward-backward iterations
 Restarting incremental Fock formation.
 Error on total polarization charges =  0.01384
 SCF Done:  E(RwB97XD) =  -6139.79896916     A.U. after   24 cycles
            NFock= 24  Conv=0.48D-08     -V/T= 2.0033

 **********************************************************************

            Population analysis using the SCF density.

 **********************************************************************

 Orbital symmetries:
       Occupied  (A) (A) (A) (A) (A) (A) (A) (A) (A) (A) (A) (A)
                 (A) (A) (A) (A) (A) (A) (A) (A) (A) (A) (A) (A)
                 (A) (A) (A) (A) (A) (A) (A) (A) (A) (A) (A) (A)
                 (A) (A) (A) (A) (A) (A) (A) (A) (A) (A) (A) (A)
                 (A) (A) (A) (A) (A) (A) (A) (A) (A) (A) (A) (A)
                 (A) (A) (A) (A) (A) (A) (A) (A) (A) (A) (A) (A)
                 (A) (A) (A) (A) (A) (A) (A) (A) (A) (A) (A) (A)
                 (A) (A) (A) (A) (A) (A) (A) (A) (A) (A) (A) (A)
                 (A) (A) (A) (A) (A) (A) (A) (A) (A) (A) (A) (A)
                 (A) (A) (A) (A) (A) (A) (A) (A) (A) (A) (A) (A)
                 (A) (A) (A) (A) (A) (A) (A) (A) (A) (A) (A) (A)
                 (A) (A) (A) (A) (A) (A) (A) (A) (A) (A) (A) (A)
                 (A) (A) (A) (A) (A) (A) (A) (A) (A) (A) (A) (A)
                 (A) (A) (A) (A) (A) (A) (A) (A) (A) (A) (A) (A)
                 (A) (A) (A) (A) (A) (A)
       Virtual   (A) (A) (A) (A) (A) (A) (A) (A) (A) (A) (A) (A)
                 (A) (A) (A) (A) (A) (A) (A) (A) (A) (A) (A) (A)
                 (A) (A) (A) (A) (A) (A) (A) (A) (A) (A) (A) (A)
                 (A) (A) (A) (A) (A) (A) (A) (A) (A) (A) (A) (A)
                 (A) (A) (A) (A) (A) (A) (A) (A) (A) (A) (A) (A)
                 (A) (A) (A) (A) (A) (A) (A) (A) (A) (A) (A) (A)
                 (A) (A) (A) (A) (A) (A) (A) (A) (A) (A) (A) (A)
                 (A) (A) (A) (A) (A) (A) (A) (A) (A) (A) (A) (A)
                 (A) (A) (A) (A) (A) (A) (A) (A) (A) (A) (A) (A)
                 (A) (A) (A) (A) (A) (A) (A) (A) (A) (A) (A) (A)
                 (A) (A) (A) (A) (A) (A) (A) (A) (A) (A) (A) (A)
                 (A) (A) (A) (A) (A) (A) (A) (A) (A) (A) (A) (A)
                 (A) (A) (A) (A) (A) (A) (A) (A) (A) (A) (A) (A)
                 (A) (A) (A) (A) (A) (A) (A) (A) (A) (A) (A) (A)
                 (A) (A) (A) (A) (A) (A) (A) (A) (A) (A) (A) (A)
                 (A) (A) (A) (A) (A) (A) (A) (A) (A) (A) (A) (A)
                 (A) (A) (A) (A) (A) (A) (A) (A) (A) (A) (A) (A)
                 (A) (A) (A) (A) (A) (A) (A) (A) (A) (A) (A) (A)
                 (A) (A) (A) (A) (A) (A) (A) (A) (A) (A) (A) (A)
                 (A) (A) (A) (A) (A) (A) (A) (A) (A) (A) (A) (A)
                 (A) (A) (A) (A) (A) (A) (A) (A) (A) (A) (A) (A)
                 (A) (A) (A) (A) (A) (A) (A) (A) (A) (A) (A) (A)
                 (A) (A) (A) (A) (A) (A) (A) (A) (A) (A) (A) (A)
                 (A) (A) (A) (A) (A) (A) (A) (A) (A) (A) (A) (A)
                 (A) (A) (A) (A) (A) (A) (A) (A) (A) (A) (A) (A)
                 (A) (A) (A) (A) (A) (A) (A) (A) (A) (A) (A) (A)
                 (A) (A) (A) (A) (A) (A) (A) (A) (A) (A) (A) (A)
                 (A) (A) (A) (A) (A) (A) (A) (A) (A) (A) (A) (A)
                 (A) (A) (A) (A) (A) (A) (A) (A) (A) (A) (A) (A)
                 (A) (A) (A) (A) (A) (A) (A) (A) (A) (A) (A) (A)
                 (A) (A) (A) (A) (A) (A) (A) (A) (A) (A) (A) (A)
                 (A) (A) (A) (A) (A) (A) (A) (A) (A) (A) (A) (A)
                 (A) (A) (A) (A) (A) (A) (A) (A) (A) (A) (A) (A)
                 (A) (A) (A) (A) (A) (A) (A) (A) (A) (A) (A) (A)
                 (A) (A) (A) (A) (A) (A) (A) (A) (A) (A) (A) (A)
                 (A) (A) (A) (A) (A) (A) (A) (A) (A) (A) (A) (A)
                 (A) (A) (A) (A) (A) (A) (A) (A) (A) (A) (A) (A)
                 (A) (A) (A) (A) (A) (A) (A) (A) (A) (A) (A) (A)
                 (A) (A) (A) (A) (A) (A) (A) (A) (A) (A) (A) (A)
                 (A) (A) (A) (A) (A) (A) (A) (A) (A) (A) (A) (A)
                 (A) (A) (A) (A) (A) (A) (A) (A) (A) (A) (A) (A)
                 (A) (A) (A) (A) (A) (A) (A) (A) (A) (A) (A) (A)
                 (A) (A) (A) (A) (A) (A) (A) (A) (A) (A) (A) (A)
                 (A) (A) (A) (A) (A) (A) (A) (A) (A) (A) (A) (A)
                 (A) (A) (A) (A) (A) (A) (A) (A) (A) (A) (A) (A)
                 (A) (A) (A) (A) (A) (A) (A) (A) (A) (A) (A) (A)
                 (A) (A) (A) (A) (A) (A) (A) (A) (A) (A) (A) (A)
                 (A) (A) (A) (A) (A) (A) (A) (A) (A) (A) (A)
 The electronic state is 1-A.
 Alpha  occ. eigenvalues -- -483.07028-235.66675 -89.03640 -89.03587 -62.65382
 Alpha  occ. eigenvalues --  -56.46099 -56.45775 -56.45756 -27.43967 -23.49851
 Alpha  occ. eigenvalues --  -23.49670 -23.49130 -19.34539 -19.34383 -19.32399
 Alpha  occ. eigenvalues --  -14.50430 -14.50285 -14.45491 -10.42055 -10.41836
 Alpha  occ. eigenvalues --  -10.39662 -10.36729 -10.36644 -10.36116 -10.36095
 Alpha  occ. eigenvalues --  -10.35674 -10.35650 -10.35374 -10.35367 -10.34282
 Alpha  occ. eigenvalues --  -10.34250 -10.34215 -10.34195 -10.34174 -10.34163
 Alpha  occ. eigenvalues --  -10.32970 -10.32966 -10.32618 -10.32610 -10.32407
 Alpha  occ. eigenvalues --  -10.32400 -10.32206 -10.32202 -10.31606 -10.29694
 Alpha  occ. eigenvalues --  -10.28821 -10.28792 -10.28003 -10.27985 -10.26993
 Alpha  occ. eigenvalues --   -8.83252  -8.08733  -8.08642  -6.66053  -6.64474
 Alpha  occ. eigenvalues --   -6.64266  -6.04194  -6.04110  -6.03799  -6.03712
 Alpha  occ. eigenvalues --   -6.03169  -6.03076  -3.25116  -2.76577  -2.76137
 Alpha  occ. eigenvalues --   -2.75848  -2.74616  -2.74608  -2.11887  -2.10207
 Alpha  occ. eigenvalues --   -2.10004  -1.23800  -1.23536  -1.21515  -1.09344
 Alpha  occ. eigenvalues --   -1.07954  -1.07587  -1.00971  -0.98634  -0.94694
 Alpha  occ. eigenvalues --   -0.93933  -0.93425  -0.91954  -0.91134  -0.90819
 Alpha  occ. eigenvalues --   -0.89700  -0.88144  -0.86356  -0.85442  -0.83399
 Alpha  occ. eigenvalues --   -0.82730  -0.82216  -0.78703  -0.76136  -0.75950
 Alpha  occ. eigenvalues --   -0.75330  -0.75035  -0.72242  -0.71353  -0.70189
 Alpha  occ. eigenvalues --   -0.69835  -0.68963  -0.68041  -0.66983  -0.65656
 Alpha  occ. eigenvalues --   -0.65109  -0.64625  -0.64332  -0.63922  -0.62732
 Alpha  occ. eigenvalues --   -0.61598  -0.61349  -0.60999  -0.59903  -0.58130
 Alpha  occ. eigenvalues --   -0.57955  -0.57735  -0.57261  -0.57065  -0.56897
 Alpha  occ. eigenvalues --   -0.56461  -0.56204  -0.55597  -0.54913  -0.54760
 Alpha  occ. eigenvalues --   -0.54652  -0.54417  -0.54287  -0.53829  -0.53530
 Alpha  occ. eigenvalues --   -0.52969  -0.52521  -0.52276  -0.52102  -0.51905
 Alpha  occ. eigenvalues --   -0.51850  -0.51545  -0.50838  -0.50296  -0.49766
 Alpha  occ. eigenvalues --   -0.49385  -0.49276  -0.49037  -0.48809  -0.48180
 Alpha  occ. eigenvalues --   -0.47570  -0.47392  -0.45904  -0.45237  -0.44212
 Alpha  occ. eigenvalues --   -0.44186  -0.43683  -0.42178  -0.42103  -0.41957
 Alpha  occ. eigenvalues --   -0.41462  -0.40331  -0.40204  -0.39641  -0.38562
 Alpha  occ. eigenvalues --   -0.38414  -0.37616  -0.36951  -0.36866  -0.35449
 Alpha  occ. eigenvalues --   -0.34058  -0.32627  -0.31980  -0.31064  -0.30983
 Alpha  occ. eigenvalues --   -0.30326  -0.29790  -0.26254  -0.16328
 Alpha virt. eigenvalues --    0.00244   0.00359   0.00473   0.01813   0.02528
 Alpha virt. eigenvalues --    0.03088   0.03432   0.04402   0.04865   0.05579
 Alpha virt. eigenvalues --    0.05910   0.06665   0.07317   0.07459   0.08686
 Alpha virt. eigenvalues --    0.09218   0.09475   0.09684   0.10416   0.11063
 Alpha virt. eigenvalues --    0.11735   0.12195   0.12535   0.13011   0.14279
 Alpha virt. eigenvalues --    0.14351   0.14887   0.15738   0.16114   0.16394
 Alpha virt. eigenvalues --    0.16468   0.17019   0.18102   0.18922   0.19074
 Alpha virt. eigenvalues --    0.19323   0.20055   0.20117   0.20319   0.20495
 Alpha virt. eigenvalues --    0.21269   0.21387   0.21794   0.22027   0.22684
 Alpha virt. eigenvalues --    0.23204   0.23434   0.24168   0.24352   0.25395
 Alpha virt. eigenvalues --    0.26221   0.26345   0.27250   0.28114   0.28454
 Alpha virt. eigenvalues --    0.29628   0.30073   0.31105   0.31280   0.31520
 Alpha virt. eigenvalues --    0.31578   0.32453   0.32875   0.32938   0.33114
 Alpha virt. eigenvalues --    0.33955   0.34312   0.34602   0.35217   0.35384
 Alpha virt. eigenvalues --    0.36141   0.36282   0.36643   0.37350   0.37657
 Alpha virt. eigenvalues --    0.37725   0.38133   0.38829   0.39091   0.39345
 Alpha virt. eigenvalues --    0.39657   0.39756   0.40235   0.40759   0.41332
 Alpha virt. eigenvalues --    0.41945   0.42027   0.42252   0.42955   0.43491
 Alpha virt. eigenvalues --    0.43598   0.43821   0.45353   0.45982   0.46286
 Alpha virt. eigenvalues --    0.46776   0.47206   0.47691   0.48258   0.48456
 Alpha virt. eigenvalues --    0.49108   0.49537   0.49869   0.49901   0.50560
 Alpha virt. eigenvalues --    0.51050   0.51333   0.51971   0.52249   0.52740
 Alpha virt. eigenvalues --    0.52842   0.52946   0.53770   0.53955   0.54432
 Alpha virt. eigenvalues --    0.55030   0.55281   0.55573   0.55750   0.55948
 Alpha virt. eigenvalues --    0.56244   0.56415   0.56716   0.57137   0.57440
 Alpha virt. eigenvalues --    0.57643   0.57784   0.58517   0.59241   0.59475
 Alpha virt. eigenvalues --    0.60316   0.60657   0.61184   0.61411   0.61907
 Alpha virt. eigenvalues --    0.62010   0.62261   0.63261   0.64524   0.64826
 Alpha virt. eigenvalues --    0.65091   0.65176   0.65878   0.66351   0.66539
 Alpha virt. eigenvalues --    0.66885   0.67022   0.67772   0.68539   0.69030
 Alpha virt. eigenvalues --    0.69445   0.69656   0.69921   0.70090   0.70441
 Alpha virt. eigenvalues --    0.71363   0.71712   0.71881   0.72140   0.72260
 Alpha virt. eigenvalues --    0.72361   0.72627   0.73097   0.73270   0.73585
 Alpha virt. eigenvalues --    0.73849   0.74136   0.74230   0.75096   0.75207
 Alpha virt. eigenvalues --    0.75457   0.75630   0.76207   0.76360   0.76605
 Alpha virt. eigenvalues --    0.77040   0.77548   0.77803   0.78289   0.78477
 Alpha virt. eigenvalues --    0.78775   0.78891   0.79011   0.79229   0.79731
 Alpha virt. eigenvalues --    0.79968   0.80586   0.81049   0.81589   0.81889
 Alpha virt. eigenvalues --    0.82066   0.82701   0.83318   0.83530   0.83945
 Alpha virt. eigenvalues --    0.84045   0.84550   0.84667   0.84787   0.84930
 Alpha virt. eigenvalues --    0.85046   0.85215   0.85648   0.85754   0.86174
 Alpha virt. eigenvalues --    0.86665   0.87135   0.87361   0.87576   0.87940
 Alpha virt. eigenvalues --    0.88267   0.88876   0.89395   0.89944   0.90125
 Alpha virt. eigenvalues --    0.90429   0.90572   0.91223   0.91314   0.91437
 Alpha virt. eigenvalues --    0.91688   0.92180   0.92622   0.93967   0.94225
 Alpha virt. eigenvalues --    0.94657   0.94912   0.95966   0.96256   0.97188
 Alpha virt. eigenvalues --    0.98156   0.99231   0.99736   1.00274   1.00677
 Alpha virt. eigenvalues --    1.01320   1.02341   1.02757   1.03189   1.03696
 Alpha virt. eigenvalues --    1.03944   1.05723   1.06447   1.07148   1.07964
 Alpha virt. eigenvalues --    1.08761   1.08955   1.09661   1.10110   1.11010
 Alpha virt. eigenvalues --    1.12001   1.12521   1.13196   1.13626   1.13924
 Alpha virt. eigenvalues --    1.14012   1.14803   1.15387   1.15866   1.16532
 Alpha virt. eigenvalues --    1.17347   1.18719   1.19283   1.20188   1.20734
 Alpha virt. eigenvalues --    1.20981   1.22604   1.23055   1.23692   1.24464
 Alpha virt. eigenvalues --    1.24814   1.25745   1.26537   1.26968   1.27878
 Alpha virt. eigenvalues --    1.28677   1.28773   1.29591   1.29768   1.29991
 Alpha virt. eigenvalues --    1.30172   1.31115   1.31438   1.31739   1.32140
 Alpha virt. eigenvalues --    1.32336   1.33482   1.33662   1.34484   1.34866
 Alpha virt. eigenvalues --    1.35653   1.35750   1.36113   1.36358   1.36990
 Alpha virt. eigenvalues --    1.38287   1.38331   1.38397   1.39077   1.39956
 Alpha virt. eigenvalues --    1.40438   1.40618   1.41044   1.41464   1.42240
 Alpha virt. eigenvalues --    1.42491   1.43956   1.45374   1.47037   1.48059
 Alpha virt. eigenvalues --    1.48909   1.50325   1.50494   1.50993   1.51834
 Alpha virt. eigenvalues --    1.54199   1.55047   1.55411   1.57006   1.57320
 Alpha virt. eigenvalues --    1.58300   1.59179   1.62220   1.62805   1.63450
 Alpha virt. eigenvalues --    1.63650   1.65139   1.66610   1.67415   1.68376
 Alpha virt. eigenvalues --    1.68778   1.70059   1.70687   1.72727   1.73126
 Alpha virt. eigenvalues --    1.73435   1.73934   1.74183   1.75163   1.75419
 Alpha virt. eigenvalues --    1.76106   1.76219   1.76558   1.76720   1.77207
 Alpha virt. eigenvalues --    1.77294   1.77683   1.78090   1.78424   1.78982
 Alpha virt. eigenvalues --    1.79218   1.79434   1.80206   1.80614   1.81120
 Alpha virt. eigenvalues --    1.81918   1.82058   1.82940   1.83029   1.83236
 Alpha virt. eigenvalues --    1.83838   1.84536   1.84860   1.85143   1.85448
 Alpha virt. eigenvalues --    1.86511   1.86606   1.87404   1.88742   1.89138
 Alpha virt. eigenvalues --    1.89325   1.89473   1.89932   1.90227   1.90280
 Alpha virt. eigenvalues --    1.90716   1.91154   1.91557   1.91615   1.92433
 Alpha virt. eigenvalues --    1.92671   1.93625   1.94122   1.94362   1.94786
 Alpha virt. eigenvalues --    1.96710   1.96982   1.97807   1.98690   1.98815
 Alpha virt. eigenvalues --    1.99946   2.00803   2.01852   2.01948   2.02228
 Alpha virt. eigenvalues --    2.02596   2.03108   2.03463   2.04097   2.05807
 Alpha virt. eigenvalues --    2.05942   2.06108   2.06324   2.07094   2.07658
 Alpha virt. eigenvalues --    2.08498   2.09137   2.09360   2.09594   2.09880
 Alpha virt. eigenvalues --    2.10271   2.10394   2.10929   2.12565   2.12826
 Alpha virt. eigenvalues --    2.12842   2.14563   2.14955   2.16289   2.17456
 Alpha virt. eigenvalues --    2.17919   2.19087   2.19818   2.20161   2.20316
 Alpha virt. eigenvalues --    2.21827   2.22200   2.23735   2.24439   2.25059
 Alpha virt. eigenvalues --    2.25341   2.25949   2.26797   2.27316   2.27600
 Alpha virt. eigenvalues --    2.27747   2.29548   2.30458   2.31578   2.32079
 Alpha virt. eigenvalues --    2.32374   2.32596   2.33231   2.33662   2.35056
 Alpha virt. eigenvalues --    2.35444   2.36140   2.37039   2.37731   2.37831
 Alpha virt. eigenvalues --    2.38373   2.38905   2.39332   2.40265   2.40805
 Alpha virt. eigenvalues --    2.40925   2.42180   2.42687   2.42752   2.43244
 Alpha virt. eigenvalues --    2.43872   2.45902   2.46717   2.46828   2.47770
 Alpha virt. eigenvalues --    2.48713   2.49722   2.49913   2.50310   2.53729
 Alpha virt. eigenvalues --    2.54108   2.55226   2.56835   2.57418   2.59553
 Alpha virt. eigenvalues --    2.60107   2.61341   2.63323   2.65994   2.67164
 Alpha virt. eigenvalues --    2.67703   2.68549   2.68784   2.69600   2.69676
 Alpha virt. eigenvalues --    2.69759   2.70032   2.70504   2.71265   2.71421
 Alpha virt. eigenvalues --    2.71852   2.71946   2.72246   2.73395   2.73586
 Alpha virt. eigenvalues --    2.75555   2.77011   2.77356   2.79583   2.79632
 Alpha virt. eigenvalues --    2.80512   2.82096   2.83374   2.83479   2.83940
 Alpha virt. eigenvalues --    2.84069   2.84734   2.84978   2.85798   2.87509
 Alpha virt. eigenvalues --    2.88059   2.88924   2.89668   2.90623   2.92688
 Alpha virt. eigenvalues --    2.93296   2.96732   2.99161   2.99848   3.00027
 Alpha virt. eigenvalues --    3.02078   3.02606   3.03637   3.04549   3.05160
 Alpha virt. eigenvalues --    3.05814   3.08278   3.09452   3.11055   3.13427
 Alpha virt. eigenvalues --    3.15334   3.16274   3.18239   3.19753   3.20398
 Alpha virt. eigenvalues --    3.20701   3.22335   3.23833   3.24056   3.25904
 Alpha virt. eigenvalues --    3.26433   3.26457   3.31211   3.31829   3.34553
 Alpha virt. eigenvalues --    3.38655   3.40220   3.42384   3.49684   3.54065
 Alpha virt. eigenvalues --    3.54509   3.55638   3.57369   3.57654   3.58312
 Alpha virt. eigenvalues --    3.59101   3.61986   3.62608   3.63200   3.66010
 Alpha virt. eigenvalues --    3.67245   3.69887   3.70704   3.71151   3.79770
 Alpha virt. eigenvalues --    3.81382   3.81643   3.85064   3.91374   3.95961
 Alpha virt. eigenvalues --    3.97726   4.06127   4.12386   4.18092   4.25042
          Condensed to atoms (all electrons):
 Mulliken charges:
               1
     1  Mn  -1.044000
     2  C    0.392474
     3  O   -0.059281
     4  C    0.388174
     5  O   -0.056226
     6  C    0.316374
     7  N   -0.217856
     8  C   -0.030358
     9  C    0.060950
    10  C    0.160840
    11  H    0.061409
    12  H    0.052795
    13  N   -0.084328
    14  C   -0.150703
    15  C   -0.052891
    16  C   -0.062662
    17  C   -0.017825
    18  C   -0.060329
    19  H   -0.008900
    20  H   -0.007233
    21  N   -0.214879
    22  C   -0.025894
    23  C    0.050931
    24  H    0.060743
    25  C    0.095900
    26  H    0.121167
    27  C    0.093727
    28  H    0.112253
    29  H    0.011824
    30  O   -0.081373
    31  S    0.131998
    32  S    0.086493
    33  C   -0.073577
    34  C    0.001777
    35  C   -0.021119
    36  C   -0.018816
    37  C   -0.005942
    38  C   -0.083524
    39  C   -0.056076
    40  H    0.037577
    41  H    0.049651
    42  H    0.040229
    43  C   -0.057551
    44  C   -0.084343
    45  C   -0.005683
    46  C   -0.018662
    47  C   -0.022653
    48  C    0.004102
    49  H    0.040198
    50  H    0.049598
    51  H    0.037684
    52  C   -0.069619
    53  H    0.053283
    54  C    0.167200
    55  H    0.041869
    56  H    0.050998
    57  C   -0.087387
    58  C   -0.022700
    59  H    0.012091
    60  H    0.003163
    61  Br   0.014918
 Sum of Mulliken charges =  -0.00000
 Mulliken charges with hydrogens summed into heavy atoms:
               1
     1  Mn  -1.044000
     2  C    0.392474
     3  O   -0.059281
     4  C    0.388174
     5  O   -0.056226
     6  C    0.316374
     7  N   -0.217856
     8  C    0.031051
     9  C    0.113745
    10  C    0.211838
    13  N   -0.084328
    14  C   -0.150703
    15  C   -0.052891
    16  C   -0.071562
    17  C   -0.006001
    18  C   -0.067562
    21  N   -0.214879
    22  C    0.034849
    23  C    0.104214
    25  C    0.217067
    27  C    0.205979
    30  O   -0.081373
    31  S    0.131998
    32  S    0.086493
    33  C   -0.073577
    34  C    0.001777
    35  C    0.016458
    36  C    0.030835
    37  C    0.034287
    38  C   -0.083524
    39  C   -0.056076
    43  C   -0.057551
    44  C   -0.084343
    45  C    0.034515
    46  C    0.030937
    47  C    0.015030
    48  C    0.004102
    52  C   -0.069619
    54  C    0.209068
    57  C   -0.084224
    58  C   -0.010609
    61  Br   0.014918
 Electronic spatial extent (au):  <R**2>=          20291.5071
 Charge=             -0.0000 electrons
 Dipole moment (field-independent basis, Debye):
    X=              4.9402    Y=             -0.0099    Z=             -5.3053  Tot=              7.2493
 Quadrupole moment (field-independent basis, Debye-Ang):
   XX=           -279.3434   YY=           -219.5192   ZZ=           -304.6414
   XY=              1.7031   XZ=            -14.2756   YZ=              2.8228
 Traceless Quadrupole moment (field-independent basis, Debye-Ang):
   XX=            -11.5087   YY=             48.3155   ZZ=            -36.8067
   XY=              1.7031   XZ=            -14.2756   YZ=              2.8228
 Octapole moment (field-independent basis, Debye-Ang**2):
  XXX=            -63.0621  YYY=              1.6695  ZZZ=           -118.8871  XYY=              5.0457
  XXY=             -0.6416  XXZ=            -71.3478  XZZ=            -25.1748  YZZ=              1.1933
  YYZ=              3.0109  XYZ=              3.4473
 Hexadecapole moment (field-independent basis, Debye-Ang**3):
 XXXX=         -14256.4265 YYYY=          -5916.2494 ZZZZ=          -6522.6466 XXXY=             31.6104
 XXXZ=           -292.2454 YYYX=             34.7492 YYYZ=             14.0677 ZZZX=             49.2495
 ZZZY=             43.0956 XXYY=          -3195.5745 XXZZ=          -3349.9350 YYZZ=          -1925.8641
 XXYZ=              9.0616 YYXZ=           -267.8449 ZZXY=            -17.8124
 N-N= 7.225879344697D+03 E-N=-2.899280615284D+04  KE= 6.119806418724D+03
 PrsmSu:  requested number of processors reduced to:  11 ShMem   1 Linda.
 D1PCM: PCM CHGder 1st derivatives, ID1Alg=3 FixD1E=F DoIter=F DoCFld=F I1PDM=0.
 CoulSu:  requested number of processors reduced to:  10 ShMem   1 Linda.
 CoulSu:  requested number of processors reduced to:  10 ShMem   1 Linda.
 Calling FoFJK, ICntrl=      2127 FMM=T ISym2X=0 I1Cent= 0 IOpClX= 0 NMat=1 NMatS=1 NMatT=0.
 ***** Axes restored to original set *****
 -------------------------------------------------------------------
 Center     Atomic                   Forces (Hartrees/Bohr)
 Number     Number              X              Y              Z
 -------------------------------------------------------------------
      1       25          -0.133841623   -0.103236047   -0.351578001
      2        6          -0.013613157    0.010369110   -0.015343617
      3        8           0.005292744   -0.008051850    0.003249403
      4        6          -0.025841835   -0.011300726   -0.001540113
      5        8           0.012253883    0.005278074   -0.004002801
      6        6          -0.022625126    0.002950125   -0.004165280
      7        7          -0.006340776    0.015534310   -0.005781408
      8        6           0.001201868   -0.001166440   -0.000842445
      9        6          -0.001497442    0.000191710    0.000403510
     10        6           0.002354068   -0.000442293    0.000953745
     11        1          -0.001089642    0.000968833   -0.000385679
     12        1          -0.000073080   -0.000145131    0.000249890
     13        7           0.047418167    0.032256349    0.162672050
     14        6          -0.146139399    0.085203443    0.076660567
     15        6           0.053742504   -0.034919499   -0.034743329
     16        6          -0.020856230   -0.005311527    0.012295738
     17        6           0.008249485   -0.002846332   -0.003166299
     18        6          -0.010390361    0.022603119    0.002080874
     19        1          -0.000114573   -0.000110142   -0.000219699
     20        1          -0.000324857    0.000106083   -0.000453591
     21        7          -0.015553124   -0.008798400    0.005081377
     22        6          -0.000682752   -0.000426287   -0.000665657
     23        6          -0.000055165    0.000277663    0.000460746
     24        1          -0.000189911   -0.000296409   -0.000107242
     25        6          -0.005425160    0.013330628   -0.005324636
     26        1          -0.004789128    0.001098288   -0.002654654
     27        6          -0.009202254   -0.004026849    0.000358426
     28        1          -0.001292423   -0.001529048    0.000227372
     29        1          -0.000924235   -0.000722238    0.000569131
     30        8          -0.002418855   -0.006250637   -0.018879305
     31       16           0.001505058   -0.000062456    0.000900983
     32       16           0.000205041    0.000016884   -0.000047406
     33        6           0.000575393    0.002107751    0.001017944
     34        6          -0.000001772    0.000209573    0.000239389
     35        6          -0.000082420    0.000017778    0.000065852
     36        6          -0.000005965    0.000082697   -0.000102380
     37        6          -0.000068254    0.000009839   -0.000021521
     38        6          -0.000064940    0.000308498   -0.000488021
     39        6          -0.000516280   -0.001101548    0.000464007
     40        1           0.000042839    0.000048746   -0.000032928
     41        1          -0.000024482    0.000047353   -0.000042547
     42        1          -0.000020584    0.000033117   -0.000020609
     43        6          -0.000211490    0.000812012   -0.000515985
     44        6          -0.000193920   -0.000534470   -0.000050253
     45        6          -0.000153710    0.000105094   -0.000092279
     46        6          -0.000049813   -0.000064498   -0.000014331
     47        6          -0.000180649    0.000246699   -0.000097958
     48        6           0.000382729    0.000034219    0.000378234
     49        1          -0.000063483   -0.000010093   -0.000000047
     50        1          -0.000076042   -0.000037533   -0.000003219
     51        1           0.000077995    0.000020958    0.000060767
     52        6           0.000021972   -0.000082607    0.001245344
     53        1          -0.000073339    0.000165784    0.000038434
     54        6           0.001164262   -0.000096211    0.000965846
     55        1           0.001027724   -0.000226802   -0.000716955
     56        1           0.001067831   -0.000919492   -0.000168229
     57        6          -0.012080662    0.006480129    0.005171300
     58        6           0.008116482   -0.004931338   -0.001827601
     59        1          -0.000239694    0.001320127   -0.000249575
     60        1          -0.000665638    0.000299892    0.000072841
     61       35           0.293354199   -0.004887980    0.178461827
 -------------------------------------------------------------------
 Cartesian Forces:  Max     0.351578001 RMS     0.043415309

 GradGradGradGradGradGradGradGradGradGradGradGradGradGradGradGradGradGrad
 Berny optimization.
 FormGI is forming the generalized inverse of G from B-inverse, IUseBI=4.
 Internal  Forces:  Max     0.463029870 RMS     0.030190978
 Search for a local minimum.
 Step number   1 out of a maximum of  356
 All quantities printed in internal units (Hartrees-Bohrs-Radians)
 Mixed Optimization -- RFO/linear search
 Second derivative matrix not updated -- first step.
 ITU=  0
     Eigenvalues ---    0.00230   0.00766   0.00946   0.01336   0.01377
     Eigenvalues ---    0.01524   0.01578   0.01605   0.01663   0.01678
     Eigenvalues ---    0.01719   0.01804   0.01860   0.01872   0.01898
     Eigenvalues ---    0.01921   0.01946   0.02005   0.02074   0.02125
     Eigenvalues ---    0.02131   0.02137   0.02144   0.02146   0.02151
     Eigenvalues ---    0.02164   0.02164   0.02165   0.02168   0.02174
     Eigenvalues ---    0.02176   0.02177   0.02179   0.02181   0.02186
     Eigenvalues ---    0.02192   0.02197   0.02200   0.02227   0.02229
     Eigenvalues ---    0.02260   0.02271   0.02332   0.02340   0.02359
     Eigenvalues ---    0.02378   0.02923   0.03208   0.03571   0.03722
     Eigenvalues ---    0.03870   0.05083   0.05083   0.05131   0.05131
     Eigenvalues ---    0.05156   0.05156   0.06772   0.08696   0.09534
     Eigenvalues ---    0.10712   0.11071   0.11381   0.11957   0.12064
     Eigenvalues ---    0.13607   0.14409   0.15994   0.15995   0.15996
     Eigenvalues ---    0.15997   0.15998   0.15998   0.15998   0.15998
     Eigenvalues ---    0.15999   0.15999   0.15999   0.15999   0.16000
     Eigenvalues ---    0.16000   0.16000   0.16000   0.16000   0.16000
     Eigenvalues ---    0.16000   0.16447   0.17136   0.20737   0.20891
     Eigenvalues ---    0.21284   0.21975   0.21999   0.22000   0.22057
     Eigenvalues ---    0.22138   0.22159   0.22206   0.22364   0.22884
     Eigenvalues ---    0.23456   0.23473   0.23474   0.23482   0.23662
     Eigenvalues ---    0.23753   0.23831   0.24336   0.24396   0.24905
     Eigenvalues ---    0.24924   0.24989   0.24996   0.25000   0.25000
     Eigenvalues ---    0.26656   0.26674   0.27500   0.27937   0.33198
     Eigenvalues ---    0.33663   0.34218   0.34565   0.34574   0.34585
     Eigenvalues ---    0.34593   0.34614   0.34616   0.34618   0.34667
     Eigenvalues ---    0.34668   0.34670   0.34673   0.34756   0.34768
     Eigenvalues ---    0.34780   0.34803   0.34807   0.35061   0.35148
     Eigenvalues ---    0.38371   0.39747   0.40064   0.40767   0.41675
     Eigenvalues ---    0.41683   0.41712   0.42015   0.42264   0.43854
     Eigenvalues ---    0.43903   0.43935   0.44241   0.44900   0.45617
     Eigenvalues ---    0.45890   0.45897   0.45937   0.45964   0.46149
     Eigenvalues ---    0.46454   0.46593   0.46596   0.46847   0.46873
     Eigenvalues ---    0.47161   0.47340   0.47428   0.53940   0.54100
     Eigenvalues ---    0.55574   0.56601   0.66487   1.29106   1.39158
     Eigenvalues ---    1.41832   1.43262
 RFO step:  Lambda=-3.37038105D-01 EMin= 2.30000000D-03
 Linear search not attempted -- first point.
 Maximum step size (   0.300) exceeded in Quadratic search.
    -- Step size scaled by   0.490
 Iteration  1 RMS(Cart)=  0.07212779 RMS(Int)=  0.00169103
 Iteration  2 RMS(Cart)=  0.00423465 RMS(Int)=  0.00002159
 Iteration  3 RMS(Cart)=  0.00000746 RMS(Int)=  0.00002155
 Iteration  4 RMS(Cart)=  0.00000000 RMS(Int)=  0.00002155
 Variable       Old X    -DE/DX   Delta X   Delta X   Delta X     New X
                                 (Linear)    (Quad)   (Total)
    R1        3.48467  -0.00604   0.00000  -0.00539  -0.00539   3.47928
    R2        3.50222  -0.01011   0.00000  -0.00910  -0.00910   3.49312
    R3        3.39678   0.03180   0.00000   0.02686   0.02686   3.42364
    R4        3.98172   0.03461   0.00000   0.03773   0.03774   4.01947
    R5        4.01135   0.02859   0.00000   0.03148   0.03149   4.04284
    R6        3.39678   0.46303   0.00000   0.22652   0.22652   3.62331
    R7        2.15428   0.00954   0.00000   0.00266   0.00266   2.15694
    R8        2.15071   0.01338   0.00000   0.00371   0.00371   2.15442
    R9        2.16109   0.01866   0.00000   0.00529   0.00529   2.16638
   R10        2.52515   0.00142   0.00000   0.00086   0.00088   2.52603
   R11        2.54465   0.00409   0.00000   0.00225   0.00226   2.54691
   R12        2.63001  -0.00431   0.00000  -0.00273  -0.00274   2.62727
   R13        2.06072  -0.00019   0.00000  -0.00014  -0.00014   2.06059
   R14        2.62131  -0.00134   0.00000  -0.00089  -0.00089   2.62041
   R15        2.06387  -0.00008   0.00000  -0.00006  -0.00006   2.06382
   R16        2.63630  -0.00396   0.00000  -0.00244  -0.00245   2.63385
   R17        2.63449   0.00527   0.00000   0.00319   0.00321   2.63770
   R18        2.05576   0.00010   0.00000   0.00007   0.00007   2.05583
   R19        2.18831   0.14957   0.00000   0.04503   0.04503   2.23334
   R20        3.05282   0.25135   0.00000   0.15869   0.15869   3.21150
   R21        2.71466  -0.03567   0.00000  -0.02370  -0.02370   2.69096
   R22        2.65053   0.02139   0.00000   0.01352   0.01352   2.66405
   R23        2.64922   0.02158   0.00000   0.01361   0.01362   2.66283
   R24        2.62783  -0.00088   0.00000  -0.00053  -0.00053   2.62729
   R25        2.06033   0.00007   0.00000   0.00005   0.00005   2.06038
   R26        2.06219   0.00130   0.00000   0.00094   0.00094   2.06312
   R27        2.63702   0.00507   0.00000   0.00288   0.00287   2.63990
   R28        2.05996   0.00003   0.00000   0.00002   0.00002   2.05998
   R29        2.62910  -0.00112   0.00000  -0.00068  -0.00068   2.62842
   R30        2.54338   0.00285   0.00000   0.00158   0.00159   2.54497
   R31        2.52345   0.00106   0.00000   0.00066   0.00067   2.52412
   R32        2.63230  -0.00347   0.00000  -0.00225  -0.00226   2.63003
   R33        2.05990   0.00001   0.00000   0.00001   0.00001   2.05991
   R34        2.61965  -0.00071   0.00000  -0.00053  -0.00054   2.61911
   R35        2.63453  -0.00219   0.00000  -0.00136  -0.00137   2.63316
   R36        2.06373   0.00003   0.00000   0.00002   0.00002   2.06375
   R37        2.06964  -0.00543   0.00000  -0.00392  -0.00392   2.06572
   R38        2.06054  -0.00097   0.00000  -0.00069  -0.00069   2.05985
   R39        3.36835   0.00030   0.00000   0.00050   0.00048   3.36883
   R40        3.36810   0.00007   0.00000   0.00039   0.00038   3.36848
   R41        3.35443  -0.00147   0.00000  -0.00132  -0.00132   3.35311
   R42        3.35401  -0.00155   0.00000  -0.00137  -0.00137   3.35264
   R43        2.81188  -0.00044   0.00000  -0.00029  -0.00029   2.81159
   R44        2.64387   0.00037   0.00000   0.00027   0.00027   2.64414
   R45        2.66293  -0.00022   0.00000   0.00010   0.00008   2.66301
   R46        2.63087  -0.00088   0.00000  -0.00061  -0.00061   2.63026
   R47        2.06341   0.00007   0.00000   0.00005   0.00005   2.06346
   R48        2.62944  -0.00114   0.00000  -0.00081  -0.00080   2.62863
   R49        2.06214   0.00007   0.00000   0.00005   0.00005   2.06219
   R50        2.63966  -0.00005   0.00000  -0.00008  -0.00008   2.63958
   R51        2.06307   0.00003   0.00000   0.00002   0.00002   2.06309
   R52        2.64900   0.00115   0.00000   0.00080   0.00080   2.64979
   R53        2.64975   0.00130   0.00000   0.00086   0.00085   2.65061
   R54        2.66375  -0.00039   0.00000  -0.00001  -0.00003   2.66372
   R55        2.63974  -0.00025   0.00000  -0.00019  -0.00019   2.63956
   R56        2.62906  -0.00135   0.00000  -0.00091  -0.00090   2.62816
   R57        2.06303   0.00006   0.00000   0.00004   0.00004   2.06307
   R58        2.63050  -0.00087   0.00000  -0.00059  -0.00059   2.62992
   R59        2.06209   0.00008   0.00000   0.00006   0.00006   2.06214
   R60        2.64446   0.00039   0.00000   0.00027   0.00027   2.64472
   R61        2.06354   0.00001   0.00000   0.00001   0.00001   2.06355
   R62        2.81217  -0.00023   0.00000  -0.00019  -0.00019   2.81198
   R63        2.63693   0.00315   0.00000   0.00198   0.00200   2.63892
   R64        2.05435   0.00031   0.00000   0.00022   0.00022   2.05457
   R65        2.63644   0.00526   0.00000   0.00299   0.00299   2.63943
   R66        2.06300   0.00071   0.00000   0.00051   0.00051   2.06351
   R67        2.06218   0.00136   0.00000   0.00097   0.00097   2.06315
    A1        1.56565  -0.00013   0.00000  -0.00019  -0.00020   1.56545
    A2        1.57561  -0.00378   0.00000  -0.00528  -0.00528   1.57032
    A3        1.54575  -0.00111   0.00000  -0.00068  -0.00082   1.54494
    A4        1.56599   0.00451   0.00000   0.00611   0.00611   1.57210
    A5        1.57132  -0.00257   0.00000  -0.00360  -0.00361   1.56771
    A6        1.55017  -0.00100   0.00000  -0.00057  -0.00072   1.54945
    A7        1.57027   0.00733   0.00000   0.00875   0.00876   1.57904
    A8        1.67143  -0.01443   0.00000  -0.01605  -0.01604   1.65539
    A9        1.65648  -0.01280   0.00000  -0.01413  -0.01411   1.64237
[...]
   D20       -0.38413   0.00010   0.01464   0.07364   0.08831  -0.29582
   D21        3.10226  -0.00089   0.00601  -0.01516  -0.00905   3.09321
   D22       -0.06385   0.00007   0.01329  -0.01239   0.00091  -0.06294
   D23       -0.03848  -0.00023   0.00088  -0.01241  -0.01152  -0.05001
   D24        3.07859   0.00073   0.00816  -0.00964  -0.00156   3.07703
   D25       -3.12613   0.00034  -0.00953   0.01026   0.00074  -3.12539
   D26        0.00337   0.00042  -0.00753   0.00290  -0.00462  -0.00125
   D27        0.01460  -0.00033  -0.00416   0.00745   0.00327   0.01787
   D28       -3.13909  -0.00026  -0.00216   0.00009  -0.00209  -3.14118
   D29       -0.00974  -0.00016  -0.00123   0.00619   0.00495  -0.00479
   D30        3.13103   0.00054   0.00244   0.00528   0.00772   3.13875
   D31        3.12528  -0.00050  -0.00213  -0.00188  -0.00400   3.12129
   D32       -0.01714   0.00021   0.00155  -0.00279  -0.00122  -0.01836
   D33        0.01253   0.00035   0.00299  -0.00011   0.00290   0.01543
   D34       -3.11634   0.00027   0.00089   0.00762   0.00852  -3.10782
   D35       -3.13552   0.00003   0.00212  -0.00806  -0.00593  -3.14146
   D36        0.01879  -0.00005   0.00002  -0.00033  -0.00032   0.01847
   D37       -0.00417  -0.00073  -0.00452  -0.00158  -0.00612  -0.01029
   D38       -3.13577  -0.00116  -0.00559  -0.00046  -0.00605   3.14137
   D39        3.13660  -0.00002  -0.00086  -0.00248  -0.00336   3.13324
   D40        0.00500  -0.00046  -0.00193  -0.00136  -0.00328   0.00171
   D41        0.03355   0.00076   0.00348   0.00951   0.01296   0.04651
   D42       -3.11752   0.00117   0.00451   0.00840   0.01286  -3.10466
   D43       -3.08335  -0.00019  -0.00385   0.00688   0.00301  -3.08034
   D44        0.04876   0.00022  -0.00281   0.00577   0.00291   0.05167
   D45        2.55003  -0.00180   0.01938   0.13238   0.15107   2.70109
   D46       -0.62505   0.00319   0.02071   0.10858   0.13002  -0.49503
   D47       -0.14906  -0.00143  -0.03632  -0.14008  -0.17638  -0.32544
   D48        3.09492   0.00184   0.00762  -0.02138  -0.01389   3.08103
   D49       -0.04403   0.00130   0.01087  -0.02296  -0.01224  -0.05627
   D50       -0.01160   0.00056   0.00420  -0.00567  -0.00134  -0.01294
   D51        3.13264   0.00001   0.00746  -0.00725   0.00032   3.13295
   D52        0.06287  -0.00127  -0.01109   0.03213   0.02126   0.08413
   D53       -3.09425  -0.00187  -0.00781   0.02133   0.01373  -3.08051
   D54       -3.11257   0.00008  -0.00794   0.01702   0.00893  -3.10364
   D55        0.01350  -0.00052  -0.00466   0.00623   0.00141   0.01491
   D56       -3.14099  -0.00029   0.00045   0.00016   0.00057  -3.14042
   D57       -0.00383  -0.00007   0.00066   0.00203   0.00263  -0.00120
   D58       -0.00206   0.00026  -0.00283   0.00176  -0.00108  -0.00314
   D59        3.13510   0.00048  -0.00263   0.00363   0.00097   3.13608
   D60        0.01749  -0.00047  -0.00510   0.00105  -0.00408   0.01341
   D61       -3.13276  -0.00029  -0.00570  -0.00128  -0.00698  -3.13974
   D62       -3.12855  -0.00025  -0.00490   0.00293  -0.00202  -3.13057
   D63        0.00438  -0.00007  -0.00550   0.00059  -0.00491  -0.00053
   D64        0.00013  -0.00000   0.00022  -0.00308  -0.00279  -0.00266
   D65       -3.13638   0.00037   0.00161   0.00343   0.00508  -3.13131
   D66        3.12599  -0.00062   0.00355  -0.01405  -0.01044   3.11555
   D67       -0.01052  -0.00025   0.00494  -0.00753  -0.00257  -0.01309
   D68        3.09351   0.00009  -0.00278   0.02100   0.01832   3.11184
   D69       -0.02451  -0.00020  -0.00540   0.02030   0.01498  -0.00954
   D70       -0.02434   0.00063   0.00623   0.00695   0.01320  -0.01115
   D71        3.14081   0.00034   0.00361   0.00625   0.00986  -3.13252
   D72       -3.06382   0.00046   0.00203  -0.01009  -0.00798  -3.07181
   D73        0.09567  -0.00017  -0.00239  -0.00734  -0.00965   0.08602
   D74        0.05481  -0.00009  -0.00626   0.00309  -0.00319   0.05161
   D75       -3.06888  -0.00073  -0.01068   0.00583  -0.00487  -3.07375
   D76       -3.13221  -0.00059  -0.00946  -0.00204  -0.01147   3.13951
   D77        0.00608   0.00012  -0.00245  -0.00291  -0.00532   0.00076
   D78        0.02573  -0.00015  -0.00428   0.00299  -0.00130   0.02443
   D79       -3.11917   0.00056   0.00273   0.00212   0.00485  -3.11432
   D80       -0.01496  -0.00053  -0.00109  -0.01007  -0.01114  -0.02610
   D81        3.10188  -0.00022   0.00166  -0.00931  -0.00761   3.09427
   D82       -3.14052  -0.00010   0.00397  -0.00509  -0.00109   3.14158
   D83       -0.02368   0.00021   0.00673  -0.00433   0.00244  -0.02123
   D84       -3.13635   0.00082   0.00175  -0.00135   0.00044  -3.13591
   D85        0.00146   0.00066   0.00428   0.00617   0.01046   0.01192
   D86        0.00853   0.00011  -0.00523  -0.00048  -0.00568   0.00285
   D87       -3.13685  -0.00004  -0.00270   0.00703   0.00434  -3.13250
   D88       -2.42184   0.00005  -0.00674   0.00876   0.00198  -2.41986
   D89        0.78904   0.00037  -0.00262   0.00895   0.00632   0.79536
   D90       -0.78477  -0.00043   0.00106  -0.00893  -0.00788  -0.79265
   D91        2.41677  -0.00002   0.00907  -0.01058  -0.00149   2.41529
   D92        2.44987   0.00033   0.01315  -0.01250   0.00064   2.45051
   D93       -0.74289   0.00019   0.01187  -0.01176   0.00009  -0.74279
   D94        0.74693  -0.00018  -0.01337   0.01181  -0.00155   0.74538
   D95       -2.44269  -0.00037  -0.01610   0.01287  -0.00323  -2.44592
   D96        1.14467   0.00117   0.00018  -0.01101  -0.01082   1.13384
   D97       -2.01173   0.00114  -0.00392  -0.00728  -0.01118  -2.02291
   D98       -1.98684   0.00073  -0.00091  -0.00983  -0.01071  -1.99755
   D99        1.13995   0.00070  -0.00501  -0.00610  -0.01106   1.12889
   D100       3.08855  -0.00036  -0.00601   0.00413  -0.00187   3.08669
   D101      -0.02743  -0.00014  -0.00503   0.00522   0.00020  -0.02723
   D102      -0.03850  -0.00033  -0.00199   0.00043  -0.00156  -0.04007
   D103       3.12870  -0.00011  -0.00101   0.00153   0.00051   3.12921
   D104       0.12781   0.00072   0.01136  -0.00604   0.00534   0.13315
   D105      -3.08332   0.00039   0.00727  -0.00631   0.00093  -3.08239
   D106      -3.02836   0.00069   0.00732  -0.00239   0.00496  -3.02340
   D107       0.04369   0.00037   0.00322  -0.00266   0.00056   0.04424
   D108      -0.00372   0.00008  -0.00052   0.00196   0.00145  -0.00227
   D109      -3.12488   0.00013  -0.00034   0.00207   0.00173  -3.12314
   D110       3.11200  -0.00014  -0.00150   0.00086  -0.00063   3.11137
   D111      -0.00916  -0.00009  -0.00133   0.00097  -0.00035  -0.00951
   D112       0.04119   0.00014   0.00182  -0.00220  -0.00039   0.04080
   D113      -3.11365   0.00001   0.00166  -0.00228  -0.00063  -3.11428
   D114      -3.12081   0.00009   0.00165  -0.00233  -0.00068  -3.12149
   D115       0.00755  -0.00004   0.00149  -0.00241  -0.00093   0.00662
   D116       3.05511  -0.00023  -0.00175   0.00064  -0.00112   3.05399
   D117      -0.03575  -0.00009  -0.00057   0.00001  -0.00056  -0.03631
   D118      -0.07334  -0.00010  -0.00159   0.00071  -0.00089  -0.07424
   D119       3.11898   0.00004  -0.00041   0.00008  -0.00033   3.11865
   D120      -0.02499  -0.00036  -0.00480   0.00181  -0.00297  -0.02796
   D121      -3.09686  -0.00003  -0.00061   0.00170   0.00110  -3.09575
   D122       3.06498  -0.00049  -0.00616   0.00252  -0.00363   3.06135
   D123      -0.00689  -0.00016  -0.00197   0.00240   0.00044  -0.00645
   D124       0.01781   0.00040   0.00759  -0.00228   0.00529   0.02311
   D125      -3.07530   0.00058   0.01041  -0.00334   0.00706  -3.06824
   D126       3.09910  -0.00002  -0.00053  -0.00042  -0.00097   3.09813
   D127       0.00598   0.00016   0.00229  -0.00148   0.00080   0.00678
   D128       3.04037  -0.00079  -0.01244   0.00434  -0.00813   3.03223
   D129      -0.11889  -0.00076  -0.01431   0.00552  -0.00881  -0.12770
   D130      -0.04101  -0.00038  -0.00444   0.00274  -0.00169  -0.04270
   D131       3.08292  -0.00034  -0.00631   0.00392  -0.00237   3.08055
   D132      -3.05942   0.00029   0.00382  -0.00198   0.00186  -3.05756
   D133       0.06996   0.00015   0.00342  -0.00130   0.00214   0.07210
   D134       0.03456   0.00010   0.00121  -0.00106   0.00015   0.03471
   D135      -3.11925  -0.00003   0.00081  -0.00038   0.00043  -3.11881
   D136      -0.03969  -0.00015  -0.00252   0.00240  -0.00012  -0.03980
   D137       3.12248  -0.00011  -0.00236   0.00306   0.00070   3.12318
   D138       3.11422  -0.00001  -0.00212   0.00171  -0.00039   3.11383
   D139      -0.00681   0.00003  -0.00196   0.00238   0.00043  -0.00638
   D140       0.00402  -0.00008   0.00031  -0.00114  -0.00084   0.00318
   D141      -3.11135   0.00009   0.00113  -0.00025   0.00088  -3.11047
   D142       3.12500  -0.00012   0.00014  -0.00179  -0.00164   3.12335
   D143       0.00963   0.00005   0.00097  -0.00089   0.00007   0.00971
   D144       0.03613   0.00034   0.00315  -0.00139   0.00176   0.03789
   D145      -3.08785   0.00032   0.00499  -0.00262   0.00236  -3.08549
   D146      -3.13142   0.00017   0.00234  -0.00228   0.00006  -3.13136
   D147       0.02778   0.00015   0.00418  -0.00352   0.00066   0.02844
   D148       1.96351  -0.00084   0.00835   0.02999   0.03831   2.00182
   D149      -1.17427  -0.00068   0.00580   0.02241   0.02817  -1.14610
   D150      -1.19603  -0.00081   0.00646   0.03120   0.03765  -1.15838
   D151       1.94938  -0.00065   0.00391   0.02363   0.02751   1.97689
   D152      -0.04377  -0.00057   0.00101  -0.00953  -0.00851  -0.05228
   D153       3.07979   0.00006   0.00547  -0.01237  -0.00687   3.07292
   D154       3.09423  -0.00072   0.00341  -0.00241   0.00103   3.09526
   D155      -0.06539  -0.00009   0.00787  -0.00525   0.00266  -0.06273
   D156      -0.01559   0.00051   0.00464  -0.00052   0.00415  -0.01144
   D157       3.12089   0.00013   0.00326  -0.00708  -0.00377   3.11712
   D158       3.13464   0.00033   0.00524   0.00181   0.00704  -3.14151
   D159      -0.01206  -0.00005   0.00386  -0.00475  -0.00089  -0.01295
         Item               Value     Threshold  Converged?
 Maximum Force            0.027709     0.000450     NO 
 RMS     Force            0.002173     0.000300     NO 
 Maximum Displacement     0.922543     0.001800     NO 
 RMS     Displacement     0.154416     0.001200     NO 
 Predicted change in Energy=-1.998111D-03
 GradGradGradGradGradGradGradGradGradGradGradGradGradGradGradGradGradGrad

 Stoichiometry    C32H19BrMnN3O3S2
 Framework group  C1[X(C32H19BrMnN3O3S2)]
 Deg. of freedom   177
 Full point group                 C1      NOp   1
 Largest Abelian subgroup         C1      NOp   1
 Largest concise Abelian subgroup C1      NOp   1
                         Standard orientation:                         
 ---------------------------------------------------------------------
 Center     Atomic      Atomic             Coordinates (Angstroms)
 Number     Number       Type             X           Y           Z
 ---------------------------------------------------------------------
      1         25           0       -2.003495   -1.686192   -0.985978
      2          6           0       -2.985617   -1.605773   -2.515499
      3          8           0       -3.608526   -1.544402   -3.473664
      4          6           0       -2.807955   -3.233985   -0.475923
      5          8           0       -3.302595   -4.216278   -0.157722
      6          6           0       -0.739200   -2.614574   -1.855828
      7          7           0       -0.917094   -1.636144    0.860119
      8          6           0       -0.832197   -1.489239    3.249325
      9          6           0        0.560090   -1.518045    3.230357
     10          6           0        0.416796   -1.702004    0.856527
     11          1           0       -1.379225   -1.412248    4.189095
     12          1           0        1.133409   -1.459508    4.158050
     13          7           0       -5.410208    3.367574    1.585346
     14          6           0       -4.249182    3.383879    1.594499
     15          6           0       -2.813587    3.312199    1.635800
     16          6           0       -2.022732    4.469959    1.580372
     17          6           0       -0.638966    4.356001    1.696859
     18          6           0       -2.215357    2.051797    1.791194
     19          1           0       -2.490665    5.446747    1.451460
     20          1           0       -2.841554    1.158530    1.796626
     21          7           0       -1.113793    0.225812   -1.421755
     22          6           0       -1.258534    2.599213   -1.718055
     23          6           0        0.118638    2.689890   -1.892161
     24          1           0       -1.890086    3.487553   -1.747536
     25          6           0       -1.532652   -1.541031    2.050569
     26          1           0       -2.621755   -1.489099    2.027070
     27          6           0       -1.833509    1.358317   -1.471367
     28          1           0       -2.903329    1.257556   -1.286880
     29          1           0       -0.019337    5.253695    1.655496
     30          8           0        0.031314   -3.250403   -2.426268
     31         16           0        2.513895    0.829142    0.669393
     32         16           0        5.665274    0.593687    0.204795
     33          6           0        1.210974   -1.620878    2.002253
     34          6           0        2.693167   -1.660512    1.855908
     35          6           0        3.422320   -2.734631    2.374488
     36          6           0        4.800506   -2.816946    2.188219
     37          6           0        5.471987   -1.826553    1.477162
     38          6           0        4.767271   -0.722007    0.991222
     39          6           0        3.382240   -0.633590    1.181404
     40          1           0        2.893524   -3.527046    2.908275
     41          1           0        5.353476   -3.670404    2.584221
     42          1           0        6.547836   -1.899257    1.306538
     43          6           0        3.198660    1.107344   -0.946249
     44          6           0        4.583228    1.017497   -1.139544
     45          6           0        5.137545    1.320587   -2.385799
     46          6           0        4.314067    1.751831   -3.421976
     47          6           0        2.936338    1.836279   -3.234241
     48          6           0        2.358388    1.495111   -2.007513
     49          1           0        6.214907    1.227879   -2.535537
     50          1           0        4.748396    2.005309   -4.390603
     51          1           0        2.289511    2.146938   -4.057346
     52          6           0        0.878355    1.521501   -1.842379
     53          1           0        0.599663    3.655630   -2.062067
     54          6           0        0.201885    0.319518   -1.633275
     55          1           0        0.772098   -0.607767   -1.656708
     56          1           0        0.905783   -1.841113   -0.106084
     57          6           0       -0.045428    3.103743    1.868334
     58          6           0       -0.833195    1.953881    1.908385
     59          1           0       -0.368645    0.971708    2.019519
     60          1           0        1.039958    3.020751    1.960823
     61         35           0       -4.157235   -0.557743    0.050997
 ---------------------------------------------------------------------
 Rotational constants (GHZ):           0.0987493           0.0559190           0.0506809
 Basis read from rwf:  (5D, 7F)
 There are   800 symmetry adapted cartesian basis functions of A   symmetry.
 There are   749 symmetry adapted basis functions of A   symmetry.
   749 basis functions,  1349 primitive gaussians,   800 cartesian basis functions
   174 alpha electrons      174 beta electrons
       nuclear repulsion energy      6822.8707733223 Hartrees.
 NAtoms=   61 NActive=   61 NUniq=   61 SFac= 1.00D+00 NAtFMM=   60 NAOKFM=T Big=T
 Integral buffers will be    131072 words long.
 Raffenetti 2 integral format.
 Two-electron integral symmetry is turned on.
 Nuclear repulsion after empirical dispersion term =     6822.8011735036 Hartrees.
 ------------------------------------------------------------------------------
 Polarizable Continuum Model (PCM)
 =================================
 Model                : PCM.
 Atomic radii         : UFF (Universal Force Field).
 Polarization charges : Total charges.
 Charge compensation  : None.
 Solution method      : On-the-fly selection.
 Cavity type          : Scaled VdW (van der Waals Surface) (Alpha=1.100).
 Cavity algorithm     : GePol (No added spheres)
                        Default sphere list used, NSphG=   61.
                        Lebedev-Laikov grids with approx.  5.0 points / Ang**2.
                        Smoothing algorithm: York/Karplus (Gamma=1.0000).
                        Polarization charges: spherical gaussians, with
                                              point-specific exponents (IZeta= 3).
                        Self-potential: point-specific (ISelfS= 7).
                        Self-field    : sphere-specific E.n sum rule (ISelfD= 2).
 1st derivatives      : Analytical E(r).r(x)/FMM algorithm (CHGder, D1EAlg=3).
                        Cavity 1st derivative terms included.
 Solvent              : TetraHydroFuran, Eps=   7.425700 Eps(inf)=   1.974025
 ------------------------------------------------------------------------------
 One-electron integrals computed using PRISM.
 PrsmSu:  requested number of processors reduced to:  11 ShMem   1 Linda.
 NBasis=   749 RedAO= T EigKep=  2.25D-04  NBF=   749
 NBsUse=   749 1.00D-06 EigRej= -1.00D+00 NBFU=   749
 Initial guess from the checkpoint file:  "checkpoint.chk"
 B after Tr=    -0.000000   -0.000000    0.000000
         Rot=    0.999916   -0.012815    0.000338   -0.001797 Ang=  -1.48 deg.
 ExpMin= 3.93D-02 ExpMax= 2.77D+05 ExpMxC= 1.70D+04 IAcc=3 IRadAn=         5 AccDes= 0.00D+00
 Harris functional with IExCor= 4639 and IRadAn=       5 diagonalized for initial guess.
 HarFok:  IExCor= 4639 AccDes= 0.00D+00 IRadAn=         5 IDoV= 1 UseB2=F ITyADJ=14
 ICtDFT=  3500011 ScaDFX=  1.000000  1.000000  1.000000  1.000000
 FoFCou: FMM=F IPFlag=           0 FMFlag=      100000 FMFlg1=        2001
         NFxFlg=           0 DoJE=T BraDBF=F KetDBF=T FulRan=T
         wScrn=  0.000000 ICntrl=       500 IOpCl=  0 I1Cent=   200000004 NGrid=           0
         NMat0=    1 NMatS0=      1 NMatT0=    0 NMatD0=    1 NMtDS0=    0 NMtDT0=    0
 Petite list used in FoFCou.
 Requested convergence on RMS density matrix=1.00D-08 within 128 cycles.
 Requested convergence on MAX density matrix=1.00D-06.
 Requested convergence on             energy=1.00D-06.
 No special actions if energy rises.
 CoulSu:  requested number of processors reduced to:  10 ShMem   1 Linda.
 Inv3:  Mode=1 IEnd=    64338483.
 Iteration    1 A*A^-1 deviation from unit magnitude is 3.55D-15 for   1636.
 Iteration    1 A*A^-1 deviation from orthogonality  is 2.22D-15 for   3681   2166.
 Iteration    1 A^-1*A deviation from unit magnitude is 3.33D-15 for   1636.
 Iteration    1 A^-1*A deviation from orthogonality  is 9.54D-15 for   4162   4128.
 CoulSu:  requested number of processors reduced to:  10 ShMem   1 Linda.
 CoulSu:  requested number of processors reduced to:  10 ShMem   1 Linda.
 Error on total polarization charges =  0.01658
 SCF Done:  E(RwB97XD) =  -6140.26319331     A.U. after   17 cycles
            NFock= 17  Conv=0.85D-08     -V/T= 2.0038
 PrsmSu:  requested number of processors reduced to:  11 ShMem   1 Linda.
 D1PCM: PCM CHGder 1st derivatives, ID1Alg=3 FixD1E=F DoIter=F DoCFld=F I1PDM=0.
 CoulSu:  requested number of processors reduced to:  10 ShMem   1 Linda.
 CoulSu:  requested number of processors reduced to:  10 ShMem   1 Linda.
 Calling FoFJK, ICntrl=      2127 FMM=T ISym2X=0 I1Cent= 0 IOpClX= 0 NMat=1 NMatS=1 NMatT=0.
