 Entering Gaussian System, Link 0=g16
 Initial command:
 /home1/apps/gaussian/16rA.03/g16/l1.exe "/tmp/Gau-77856.inp" -scrdir="/tmp/"
 Entering Link 1 = /home1/apps/gaussian/16rA.03/g16/l1.exe PID=     77858.
  
 Copyright (c) 1988,1990,1992,1993,1995,1998,2003,2009,2016,
            Gaussian, Inc.  All Rights Reserved.
  
 This is part of the Gaussian(R) 16 program.  It is based on
 the Gaussian(R) 09 system (copyright 2009, Gaussian, Inc.),
 the Gaussian(R) 03 system (copyright 2003, Gaussian, Inc.),
 the Gaussian(R) 98 system (copyright 1998, Gaussian, Inc.),
 the Gaussian(R) 94 system (copyright 1995, Gaussian, Inc.),
 the Gaussian 92(TM) system (copyright 1992, Gaussian, Inc.),
 the Gaussian 90(TM) system (copyright 1990, Gaussian, Inc.),
 the Gaussian 88(TM) system (copyright 1988, Gaussian, Inc.),
 the Gaussian 86(TM) system (copyright 1986, Carnegie Mellon
 University), and the Gaussian 82(TM) system (copyright 1983,
 Carnegie Mellon University). Gaussian is a federally registered
 trademark of Gaussian, Inc.
  
 This software contains proprietary and confidential information,
 including trade secrets, belonging to Gaussian, Inc.
  
 This software is provided under written license and may be
 used, copied, transmitted, or stored only in accord with that
 written license.
  
 The following legend is applicable only to US Government
 contracts under FAR:
  
                    RESTRICTED RIGHTS LEGEND
  
 Use, reproduction and disclosure by the US Government is
 subject to restrictions as set forth in subparagraphs (a)
 and (c) of the Commercial Computer Software - Restricted
 Rights clause in FAR 52.227-19.
  
 Gaussian, Inc.
 340 Quinnipiac St., Bldg. 40, Wallingford CT 06492
  
  
 ---------------------------------------------------------------
 Warning -- This program may not be used in any manner that
 competes with the business of Gaussian, Inc. or will provide
 assistance to any competitor of Gaussian, Inc.  The licensee
 of this program is prohibited from giving any competitor of
 Gaussian, Inc. access to this program.  By using this program,
 the user acknowledges that Gaussian, Inc. is engaged in the
 business of creating and licensing software in the field of
 computational chemistry and represents and warrants to the
 licensee that it is not a competitor of Gaussian, Inc. and that
 it will not use this program in any manner prohibited above.
 ---------------------------------------------------------------
  

 Cite this work as:
 Gaussian 16, Revision A.03,
 M. J. Frisch, G. W. Trucks, H. B. Schlegel, G. E. Scuseria, 
 M. A. Robb, J. R. Cheeseman, G. Scalmani, V. Barone, 
 G. A. Petersson, H. Nakatsuji, X. Li, M. Caricato, A. V. Marenich, 
 J. Bloino, B. G. Janesko, R. Gomperts, B. Mennucci, H. P. Hratchian, 
 J. V. Ortiz, A. F. Izmaylov, J. L. Sonnenberg, D. Williams-Young, 
 F. Ding, F. Lipparini, F. Egidi, J. Goings, B. Peng, A. Petrone, 
 T. Henderson, D. Ranasinghe, V. G. Zakrzewski, J. Gao, N. Rega, 
 G. Zheng, W. Liang, M. Hada, M. Ehara, K. Toyota, R. Fukuda, 
 J. Hasegawa, M. Ishida, T. Nakajima, Y. Honda, O. Kitao, H. Nakai, 
 T. Vreven, K. Throssell, J. A. Montgomery, Jr., J. E. Peralta, 
 F. Ogliaro, M. J. Bearpark, J. J. Heyd, E. N. Brothers, K. N. Kudin, 
 V. N. Staroverov, T. A. Keith, R. Kobayashi, J. Normand, 
 K. Raghavachari, A. P. Rendell, J. C. Burant, S. S. Iyengar, 
 J. Tomasi, M. Cossi, J. M. Millam, M. Klene, C. Adamo, R. Cammi, 
 J. W. Ochterski, R. L. Martin, K. Morokuma, O. Farkas, 
 J. B. Foresman, and D. J. Fox, Gaussian, Inc., Wallingford CT, 2016.
 
 ******************************************
 Gaussian 16:  ES64L-G16RevA.03 25-Dec-2016
                28-Feb-2023 
 ******************************************
 %RWF=myrwfile
 %NoSave
 %NProcShared=12
 Will use up to   12 processors via shared memory.
 %Chk=checkpoint.chk
 %mem=200MW
 ---------------------------------------------------------------
 # wB97XD Gen SCRF=(Solvent=TetraHydroFuran) Freq(Numer,Restart)
 ---------------------------------------------------------------
 1/35=1,38=10/6(3);
 7/8=1,25=1,44=-1/16;
 1/10=4,30=1,38=10/3;
 99//99;
 3/5=7,6=1,11=2,25=1,30=1,70=2205,71=1,72=20,74=-58,82=7/1,2,3;
 4/5=5,16=3,69=2/1;
 5/5=2,38=5,53=20,98=1/2;
 6/7=2,8=2,9=2,10=2,12=2,28=1/1;
 7/7=1/1,2,3,16;
 1/38=10/6(-5);
 7/8=1,25=1,44=-1/16;
 1/10=4,30=1,38=10/3;
 99//99;
 Restoring state from the checkpoint file "checkpoint.chk".
 ONIOM results not found on unit 2.
 Title:  TS Freq Analysis
 Route:  # wB97XD Gen SCRF=(Solvent=TetraHydroFuran) Freq(Numer)
 NDeriv=    189 NFrqRd=  0 NDerD0=      0 MskFDP=       0 MskDFD=       0 MskDF0=       0
 Re-enter D2Numr:  atom  30 IXYZ=2 step-down number 1
 Basis read from rwf:  (5D, 7F)
   751 basis functions,  1339 primitive gaussians,   802 cartesian basis functions
   165 alpha electrons      165 beta electrons
       nuclear repulsion energy      5860.1877579005 Hartrees.
 NAtoms=   63 NActive=   63 NUniq=   63 SFac= 1.00D+00 NAtFMM=   60 NAOKFM=T Big=T
 Integral buffers will be    131072 words long.
 Raffenetti 2 integral format.
 Two-electron integral symmetry is turned off.
 Nuclear repulsion after empirical dispersion term =     5860.1246889186 Hartrees.
 ------------------------------------------------------------------------------
 Polarizable Continuum Model (PCM)
 =================================
 Model                : PCM.
 Atomic radii         : UFF (Universal Force Field).
 Polarization charges : Total charges.
 Charge compensation  : None.
 Solution method      : On-the-fly selection.
 Cavity type          : Scaled VdW (van der Waals Surface) (Alpha=1.100).
 Cavity algorithm     : GePol (No added spheres)
                        Default sphere list used, NSphG=   63.
                        Lebedev-Laikov grids with approx.  5.0 points / Ang**2.
                        Smoothing algorithm: York/Karplus (Gamma=1.0000).
                        Polarization charges: spherical gaussians, with
                                              point-specific exponents (IZeta= 3).
                        Self-potential: point-specific (ISelfS= 7).
                        Self-field    : sphere-specific E.n sum rule (ISelfD= 2).
 1st derivatives      : Analytical E(r).r(x)/FMM algorithm (CHGder, D1EAlg=3).
                        Cavity 1st derivative terms included.
 Solvent              : TetraHydroFuran, Eps=   7.425700 Eps(inf)=   1.974025
 ------------------------------------------------------------------------------
 One-electron integrals computed using PRISM.
 NBasis=   751 RedAO= T EigKep=  2.24D-04  NBF=   751
 NBsUse=   751 1.00D-06 EigRej= -1.00D+00 NBFU=   751
 Initial guess from the checkpoint file:  "checkpoint.chk"
 B after Tr=     0.000000   -0.000000    0.000046
         Rot=    1.000000    0.000006    0.000001    0.000000 Ang=   0.00 deg.
 Requested convergence on RMS density matrix=1.00D-08 within 128 cycles.
 Requested convergence on MAX density matrix=1.00D-06.
 Requested convergence on             energy=1.00D-06.
 No special actions if energy rises.
 Inv3:  Mode=1 IEnd=    73864332.
 Iteration    1 A*A^-1 deviation from unit magnitude is 4.11D-15 for   1886.
 Iteration    1 A*A^-1 deviation from orthogonality  is 2.00D-15 for   3348   1128.
 Iteration    1 A^-1*A deviation from unit magnitude is 4.00D-15 for   1886.
 Iteration    1 A^-1*A deviation from orthogonality  is 2.89D-15 for   2778   1883.
 Error on total polarization charges =  0.02143
 SCF Done:  E(RwB97XD) =  -5421.44460100     A.U. after   10 cycles
            NFock= 10  Conv=0.25D-08     -V/T= 2.0041

 **********************************************************************

            Population analysis using the SCF density.

 **********************************************************************

 Alpha  occ. eigenvalues -- -482.95450-235.70868 -62.53491 -56.34054 -56.34042
 Alpha  occ. eigenvalues --  -56.34037 -27.47535 -23.53467 -23.53109 -23.53047
 Alpha  occ. eigenvalues --  -19.34578 -19.34549 -19.34480 -14.50816 -14.50808
 Alpha  occ. eigenvalues --  -14.46642 -10.42153 -10.42149 -10.42107 -10.37155
 Alpha  occ. eigenvalues --  -10.37146 -10.36612 -10.36597 -10.36290 -10.35591
 Alpha  occ. eigenvalues --  -10.34657 -10.34642 -10.34559 -10.34550 -10.33579
 Alpha  occ. eigenvalues --  -10.33563 -10.33446 -10.33342 -10.33330 -10.33279
 Alpha  occ. eigenvalues --  -10.33273 -10.33252 -10.32880 -10.32874 -10.32638
 Alpha  occ. eigenvalues --  -10.32390 -10.32331 -10.32322 -10.32278 -10.32115
 Alpha  occ. eigenvalues --  -10.32032 -10.32002 -10.31995 -10.31849 -10.31845
 Alpha  occ. eigenvalues --   -8.70244  -6.51946  -6.51911  -6.51893  -3.26992
 Alpha  occ. eigenvalues --   -2.62450  -2.62444  -2.62430  -2.62402  -2.62400
 Alpha  occ. eigenvalues --   -2.12858  -2.11933  -2.11838  -1.23595  -1.23522
 Alpha  occ. eigenvalues --   -1.23339  -1.08600  -1.08292  -1.02155  -1.00303
 Alpha  occ. eigenvalues --   -0.97878  -0.97631  -0.94480  -0.93281  -0.91392
 Alpha  occ. eigenvalues --   -0.90866  -0.89860  -0.88166  -0.87492  -0.86416
 Alpha  occ. eigenvalues --   -0.85280  -0.85010  -0.81928  -0.76800  -0.75890
 Alpha  occ. eigenvalues --   -0.75416  -0.75397  -0.74764  -0.74595  -0.74404
 Alpha  occ. eigenvalues --   -0.72311  -0.72000  -0.70290  -0.69012  -0.68211
 Alpha  occ. eigenvalues --   -0.65748  -0.65264  -0.65173  -0.64939  -0.64543
 Alpha  occ. eigenvalues --   -0.64525  -0.62674  -0.62128  -0.61074  -0.60185
 Alpha  occ. eigenvalues --   -0.59149  -0.58430  -0.57661  -0.57535  -0.57259
 Alpha  occ. eigenvalues --   -0.56935  -0.56634  -0.56504  -0.56108  -0.55969
 Alpha  occ. eigenvalues --   -0.55729  -0.55289  -0.54924  -0.54846  -0.54461
 Alpha  occ. eigenvalues --   -0.54384  -0.54049  -0.53365  -0.52994  -0.52542
 Alpha  occ. eigenvalues --   -0.52477  -0.52468  -0.51995  -0.51303  -0.51259
 Alpha  occ. eigenvalues --   -0.51136  -0.51127  -0.50557  -0.49464  -0.49101
 Alpha  occ. eigenvalues --   -0.48548  -0.47988  -0.47408  -0.47317  -0.46044
 Alpha  occ. eigenvalues --   -0.45766  -0.45145  -0.44922  -0.43753  -0.43718
 Alpha  occ. eigenvalues --   -0.43386  -0.42442  -0.41856  -0.41242  -0.40727
 Alpha  occ. eigenvalues --   -0.40365  -0.39660  -0.37837  -0.36581  -0.35653
 Alpha  occ. eigenvalues --   -0.35161  -0.33664  -0.33579  -0.33351  -0.33256
 Alpha  occ. eigenvalues --   -0.32218  -0.29676  -0.29549  -0.29260  -0.28006
 Alpha virt. eigenvalues --   -0.03076  -0.00631  -0.00228   0.00665   0.00885
 Alpha virt. eigenvalues --    0.01822   0.01972   0.02429   0.03948   0.04362
 Alpha virt. eigenvalues --    0.04412   0.06215   0.06763   0.06934   0.08994
 Alpha virt. eigenvalues --    0.09086   0.09320   0.09653   0.10277   0.10458
 Alpha virt. eigenvalues --    0.11514   0.12856   0.13149   0.13653   0.14140
 Alpha virt. eigenvalues --    0.14328   0.14515   0.15208   0.15299   0.15869
 Alpha virt. eigenvalues --    0.15969   0.16678   0.17421   0.17928   0.18748
 Alpha virt. eigenvalues --    0.18765   0.19435   0.19561   0.19965   0.20426
 Alpha virt. eigenvalues --    0.20692   0.21554   0.21948   0.22204   0.22549
 Alpha virt. eigenvalues --    0.22633   0.23076   0.23348   0.23566   0.24793
 Alpha virt. eigenvalues --    0.25805   0.26055   0.26284   0.27058   0.27633
 Alpha virt. eigenvalues --    0.28224   0.29140   0.29835   0.29958   0.30304
 Alpha virt. eigenvalues --    0.30590   0.31065   0.31321   0.31845   0.32138
 Alpha virt. eigenvalues --    0.32258   0.32387   0.32952   0.33573   0.33858
 Alpha virt. eigenvalues --    0.34153   0.34551   0.34959   0.35259   0.35505
 Alpha virt. eigenvalues --    0.35740   0.35879   0.36107   0.36534   0.36617
 Alpha virt. eigenvalues --    0.37667   0.37774   0.38516   0.38708   0.39173
 Alpha virt. eigenvalues --    0.39992   0.40344   0.41294   0.41500   0.42061
 Alpha virt. eigenvalues --    0.42085   0.42416   0.42830   0.44052   0.44123
 Alpha virt. eigenvalues --    0.44658   0.45434   0.45902   0.46661   0.47142
 Alpha virt. eigenvalues --    0.47615   0.47851   0.48131   0.48198   0.48660
 Alpha virt. eigenvalues --    0.49957   0.50343   0.50642   0.50978   0.51237
 Alpha virt. eigenvalues --    0.51387   0.51829   0.52338   0.52571   0.52721
 Alpha virt. eigenvalues --    0.52929   0.53258   0.53613   0.54217   0.54538
 Alpha virt. eigenvalues --    0.54715   0.54938   0.55107   0.55695   0.56045
 Alpha virt. eigenvalues --    0.56169   0.56612   0.57290   0.57442   0.57611
 Alpha virt. eigenvalues --    0.58117   0.58841   0.59167   0.60149   0.60188
 Alpha virt. eigenvalues --    0.60481   0.60537   0.61090   0.61536   0.61562
 Alpha virt. eigenvalues --    0.61655   0.63252   0.63679   0.64163   0.64797
 Alpha virt. eigenvalues --    0.64870   0.65512   0.65575   0.66392   0.66852
 Alpha virt. eigenvalues --    0.67113   0.67513   0.67782   0.67969   0.68594
 Alpha virt. eigenvalues --    0.68665   0.69960   0.70448   0.70463   0.70837
 Alpha virt. eigenvalues --    0.71289   0.71713   0.71842   0.71962   0.72437
 Alpha virt. eigenvalues --    0.72724   0.72906   0.73016   0.73390   0.73444
 Alpha virt. eigenvalues --    0.73851   0.74055   0.74407   0.74729   0.74774
 Alpha virt. eigenvalues --    0.75331   0.75492   0.75676   0.75864   0.76425
 Alpha virt. eigenvalues --    0.76803   0.77012   0.77094   0.77677   0.78345
 Alpha virt. eigenvalues --    0.78429   0.78798   0.79081   0.79464   0.79631
 Alpha virt. eigenvalues --    0.80318   0.80483   0.80641   0.81157   0.81562
 Alpha virt. eigenvalues --    0.81687   0.81748   0.82534   0.82826   0.83703
 Alpha virt. eigenvalues --    0.83883   0.83943   0.84179   0.84542   0.84952
 Alpha virt. eigenvalues --    0.85264   0.85470   0.85590   0.86366   0.86933
 Alpha virt. eigenvalues --    0.86981   0.87336   0.87585   0.87834   0.88091
 Alpha virt. eigenvalues --    0.88432   0.89182   0.89271   0.90109   0.90253
 Alpha virt. eigenvalues --    0.90398   0.91416   0.91567   0.91687   0.92314
 Alpha virt. eigenvalues --    0.93825   0.94113   0.94329   0.94615   0.95171
 Alpha virt. eigenvalues --    0.95551   0.95790   0.96400   0.96945   0.97916
 Alpha virt. eigenvalues --    0.98167   0.98771   0.99050   0.99927   1.01484
 Alpha virt. eigenvalues --    1.01650   1.02258   1.03322   1.04784   1.04869
 Alpha virt. eigenvalues --    1.06583   1.07488   1.08880   1.09256   1.09530
 Alpha virt. eigenvalues --    1.10998   1.11360   1.13139   1.13664   1.14645
 Alpha virt. eigenvalues --    1.14830   1.15072   1.15866   1.16046   1.16211
 Alpha virt. eigenvalues --    1.16940   1.17832   1.18102   1.20811   1.21678
 Alpha virt. eigenvalues --    1.22020   1.22399   1.22964   1.24407   1.24561
 Alpha virt. eigenvalues --    1.24945   1.25173   1.25643   1.26220   1.26292
 Alpha virt. eigenvalues --    1.27537   1.27952   1.28437   1.28486   1.29548
 Alpha virt. eigenvalues --    1.29717   1.30257   1.30695   1.30740   1.30906
 Alpha virt. eigenvalues --    1.31492   1.32315   1.33092   1.33687   1.33904
 Alpha virt. eigenvalues --    1.34207   1.34448   1.34788   1.35320   1.35557
 Alpha virt. eigenvalues --    1.35871   1.35894   1.36200   1.37547   1.37661
 Alpha virt. eigenvalues --    1.38224   1.38352   1.38529   1.40217   1.40708
 Alpha virt. eigenvalues --    1.41966   1.42184   1.43184   1.43370   1.44535
 Alpha virt. eigenvalues --    1.45456   1.46746   1.48076   1.48175   1.49403
 Alpha virt. eigenvalues --    1.50470   1.54890   1.55601   1.55679   1.58904
 Alpha virt. eigenvalues --    1.59143   1.59885   1.62371   1.63631   1.64308
 Alpha virt. eigenvalues --    1.64907   1.65579   1.66559   1.67561   1.67774
 Alpha virt. eigenvalues --    1.68765   1.69730   1.70941   1.71703   1.72026
 Alpha virt. eigenvalues --    1.72838   1.73013   1.73258   1.73684   1.73806
 Alpha virt. eigenvalues --    1.74428   1.74744   1.75046   1.75480   1.76003
 Alpha virt. eigenvalues --    1.77226   1.77266   1.78100   1.78469   1.78661
 Alpha virt. eigenvalues --    1.78734   1.79400   1.79548   1.79944   1.80022
 Alpha virt. eigenvalues --    1.80389   1.80907   1.81462   1.81628   1.81806
 Alpha virt. eigenvalues --    1.81934   1.82092   1.82234   1.82644   1.82947
 Alpha virt. eigenvalues --    1.83416   1.84105   1.84305   1.84701   1.84877
 Alpha virt. eigenvalues --    1.85666   1.86099   1.86402   1.87097   1.87406
 Alpha virt. eigenvalues --    1.87653   1.87872   1.88296   1.89699   1.89767
 Alpha virt. eigenvalues --    1.90380   1.90390   1.91078   1.91254   1.91853
 Alpha virt. eigenvalues --    1.93363   1.94161   1.94321   1.95549   1.96082
 Alpha virt. eigenvalues --    1.96776   1.97087   1.97575   1.98314   1.99282
 Alpha virt. eigenvalues --    1.99393   2.00592   2.01152   2.01431   2.02199
 Alpha virt. eigenvalues --    2.02567   2.02833   2.03216   2.03867   2.04510
 Alpha virt. eigenvalues --    2.04823   2.04995   2.05423   2.05737   2.06135
 Alpha virt. eigenvalues --    2.06933   2.07932   2.09214   2.10064   2.10351
 Alpha virt. eigenvalues --    2.10929   2.11070   2.11847   2.12283   2.13924
 Alpha virt. eigenvalues --    2.14629   2.15516   2.15827   2.16617   2.16718
 Alpha virt. eigenvalues --    2.16847   2.17880   2.18162   2.18592   2.19588
 Alpha virt. eigenvalues --    2.20334   2.20568   2.20888   2.21319   2.21566
 Alpha virt. eigenvalues --    2.23280   2.23575   2.24383   2.24516   2.25804
 Alpha virt. eigenvalues --    2.26114   2.29376   2.29967   2.30736   2.31367
 Alpha virt. eigenvalues --    2.31465   2.31667   2.32815   2.33451   2.34417
 Alpha virt. eigenvalues --    2.34998   2.35842   2.36062   2.36679   2.37392
 Alpha virt. eigenvalues --    2.37640   2.37772   2.38133   2.38455   2.38836
 Alpha virt. eigenvalues --    2.39565   2.39698   2.41342   2.41779   2.42684
 Alpha virt. eigenvalues --    2.44070   2.45206   2.45228   2.46164   2.46723
 Alpha virt. eigenvalues --    2.47509   2.48029   2.49901   2.49976   2.50721
 Alpha virt. eigenvalues --    2.53627   2.54881   2.56236   2.57333   2.59230
 Alpha virt. eigenvalues --    2.60221   2.60990   2.61535   2.63768   2.64676
 Alpha virt. eigenvalues --    2.65771   2.65964   2.66727   2.67003   2.67569
 Alpha virt. eigenvalues --    2.67639   2.68241   2.69480   2.69821   2.69878
 Alpha virt. eigenvalues --    2.70036   2.70325   2.70409   2.70880   2.71113
 Alpha virt. eigenvalues --    2.72107   2.72445   2.72721   2.74322   2.74770
 Alpha virt. eigenvalues --    2.75737   2.77000   2.79231   2.79454   2.80058
 Alpha virt. eigenvalues --    2.80124   2.80337   2.80466   2.81824   2.82261
 Alpha virt. eigenvalues --    2.84526   2.85249   2.85777   2.86413   2.87058
 Alpha virt. eigenvalues --    2.87178   2.89628   2.91418   2.91873   2.94574
 Alpha virt. eigenvalues --    2.95897   2.97864   2.98469   2.99080   3.01341
 Alpha virt. eigenvalues --    3.02742   3.05012   3.05838   3.06159   3.07096
 Alpha virt. eigenvalues --    3.08634   3.09703   3.10251   3.11774   3.12513
 Alpha virt. eigenvalues --    3.15831   3.16231   3.19168   3.19723   3.20319
 Alpha virt. eigenvalues --    3.20731   3.20962   3.21892   3.22246   3.24165
 Alpha virt. eigenvalues --    3.24722   3.29758   3.29915   3.32663   3.32888
 Alpha virt. eigenvalues --    3.38115   3.39038   3.41616   3.45670   3.45952
 Alpha virt. eigenvalues --    3.47221   3.50718   3.52353   3.55487   3.58476
 Alpha virt. eigenvalues --    3.60568   3.62394   3.63152   3.63233   3.63510
 Alpha virt. eigenvalues --    3.63827   3.65785   3.66480   3.71965   3.72713
 Alpha virt. eigenvalues --    3.75731   3.75935   3.76575   3.78847   3.79450
 Alpha virt. eigenvalues --    3.82131   3.85097   3.92417   3.95063   4.02492
 Alpha virt. eigenvalues --    4.08530
 Electronic spatial extent (au):  <R**2>=          25433.5874
 Charge=              0.0000 electrons
 Dipole moment (field-independent basis, Debye):
    X=             19.7659    Y=             14.4252    Z=              0.2452  Tot=             24.4712
 Quadrupole moment (field-independent basis, Debye-Ang):
   XX=           -308.2005   YY=           -250.2926   ZZ=           -219.8936
   XY=            -55.8840   XZ=             -1.6763   YZ=             -1.4307
 Traceless Quadrupole moment (field-independent basis, Debye-Ang):
   XX=            -48.7382   YY=              9.1696   ZZ=             39.5686
   XY=            -55.8840   XZ=             -1.6763   YZ=             -1.4307
 Octapole moment (field-independent basis, Debye-Ang**2):
  XXX=            512.4574  YYY=            116.1008  ZZZ=              1.9636  XYY=           -130.6870
  XXY=            290.7023  XXZ=             12.2562  XZZ=             49.7729  YZZ=             10.7654
  YYZ=             -2.9817  XYZ=            -10.4891
 Hexadecapole moment (field-independent basis, Debye-Ang**3):
 XXXX=         -19177.7731 YYYY=          -7166.2057 ZZZZ=          -5533.8276 XXXY=          -1221.8834
 XXXZ=            -63.9099 YYYX=           -623.4176 YYYZ=             13.6990 ZZZX=             11.9008
 ZZZY=            -32.1031 XXYY=          -4544.7719 XXZZ=          -3815.2794 YYZZ=          -2544.3203
 XXYZ=             17.9414 YYXZ=            -30.4064 ZZXY=            133.4858
 N-N= 5.860124688919D+03 E-N=-2.454765137164D+04  KE= 5.399270269356D+03
 D1PCM: PCM CHGder 1st derivatives, ID1Alg=3 FixD1E=F DoIter=F DoCFld=F I1PDM=0.
 Calling FoFJK, ICntrl=      2127 FMM=T ISym2X=0 I1Cent= 0 IOpClX= 0 NMat=1 NMatS=1 NMatT=0.
 -------------------------------------------------------------------
 Center     Atomic                   Forces (Hartrees/Bohr)
 Number     Number              X              Y              Z
 -------------------------------------------------------------------
      1       25          -0.000072932   -0.000050365    0.000050590
      2        6           0.000015426   -0.000019163   -0.000008791
      3        8          -0.000004641    0.000008399    0.000000411
      4        6           0.000025030   -0.000080509   -0.000030748
      5        8           0.000004915   -0.000008882    0.000003318
      6        6          -0.000033888   -0.000004002    0.000052587
      7        7          -0.000121837    0.000014058   -0.000081099
      8        6          -0.000009078   -0.000051669    0.000035450
      9        6           0.000002723    0.000004637    0.000017275
     10        6           0.000036496   -0.000002186   -0.000014171
     11        1          -0.000015425    0.000020572   -0.000017880
     12        1           0.000000696    0.000002484   -0.000000569
     13        7           0.000207813    0.000076206   -0.000056946
     14        6          -0.000094146    0.000023417    0.000102279
     15        6          -0.000048517   -0.000009350   -0.000038572
     16        6          -0.000035946    0.000003285   -0.000015634
     17        6          -0.000006401   -0.000016362    0.000001497
     18        6          -0.000182875    0.000091243    0.000097571
     19        1           0.000004430   -0.000014528   -0.000004691
     20        1           0.000230901   -0.000085183   -0.000099879
     21        7          -0.000049206    0.000027319   -0.000003838
     22        6           0.000000338   -0.000030575   -0.000011907
     23        6           0.000002414    0.000011357   -0.000004998
     24        1          -0.000045309   -0.000015129    0.000039851
     25        6          -0.000004862   -0.000014156   -0.000008627
     26        1          -0.000005494   -0.000008104   -0.000001579
     27        6           0.000030068    0.000015711    0.000005119
     28        1           0.000008307   -0.000003881   -0.000008337
     29        1          -0.000005976   -0.000000781    0.000001653
     30        8           0.000042682   -0.000017248   -0.000030544
     31        6           0.000047088    0.000002396    0.000119497
     32        6           0.000018385    0.000023149   -0.000046571
     33        6           0.000012285    0.000024195    0.000022843
     34        6           0.000026233    0.000013242   -0.000030231
     35        6          -0.000009198    0.000006778   -0.000004745
     36        6           0.000000150    0.000004842    0.000008793
     37        6           0.000009126    0.000005489   -0.000007604
     38        6          -0.000018000    0.000001239    0.000024997
     39        6          -0.000022995    0.000021053   -0.000036973
     40        1          -0.000000268    0.000002762    0.000002286
     41        1           0.000004237    0.000004879    0.000003732
     42        1           0.000003451    0.000005515   -0.000002183
     43        6           0.000004177   -0.000006054    0.000029765
     44        6           0.000008468    0.000004568   -0.000000327
     45        6           0.000002175    0.000003754   -0.000004723
     46        6          -0.000005011    0.000005066    0.000000265
     47        6           0.000001317    0.000002388    0.000009842
     48        6           0.000006367    0.000009096   -0.000030872
     49        1          -0.000003622    0.000005581   -0.000000002
     50        1           0.000000607    0.000006549    0.000000301
     51        1          -0.000004605    0.000003564   -0.000002574
     52        6          -0.000002961   -0.000010151   -0.000015823
     53        1           0.000001373    0.000002748   -0.000003305
     54        6          -0.000001543   -0.000022184   -0.000004917
     55        1           0.000003088    0.000001102   -0.000005516
     56        1          -0.000002590    0.000003538    0.000003284
     57        6          -0.000004167   -0.000006188    0.000003667
     58        6           0.000001081    0.000011240    0.000000565
     59        1          -0.000003389   -0.000008614    0.000001628
     60        1          -0.000005118   -0.000007503   -0.000001921
     61       35           0.000002363    0.000024933    0.000010853
     62        1           0.000050918    0.000002711   -0.000022672
     63        1           0.000004876   -0.000008297    0.000009847
 -------------------------------------------------------------------
 Cartesian Forces:  Max     0.000230901 RMS     0.000039781
 NDeriv=    189 NFrqRd=  0 NDerD0=      0 MskFDP=       0 MskDFD=       0 MskDF0=       0
 Re-enter D2Numr:  atom  30 IXYZ=3 step-up   number 1
 Basis read from rwf:  (5D, 7F)
   751 basis functions,  1339 primitive gaussians,   802 cartesian basis functions
   165 alpha electrons      165 beta electrons
       nuclear repulsion energy      5860.1841820720 Hartrees.
 NAtoms=   63 NActive=   63 NUniq=   63 SFac= 1.00D+00 NAtFMM=   60 NAOKFM=T Big=T
 Integral buffers will be    131072 words long.
 Raffenetti 2 integral format.
 Two-electron integral symmetry is turned off.
 Nuclear repulsion after empirical dispersion term =     5860.1211131520 Hartrees.
 ------------------------------------------------------------------------------
 Polarizable Continuum Model (PCM)
 =================================
 Model                : PCM.
 Atomic radii         : UFF (Universal Force Field).
 Polarization charges : Total charges.
 Charge compensation  : None.
 Solution method      : On-the-fly selection.
 Cavity type          : Scaled VdW (van der Waals Surface) (Alpha=1.100).
 Cavity algorithm     : GePol (No added spheres)
                        Default sphere list used, NSphG=   63.
                        Lebedev-Laikov grids with approx.  5.0 points / Ang**2.
                        Smoothing algorithm: York/Karplus (Gamma=1.0000).
                        Polarization charges: spherical gaussians, with
                                              point-specific exponents (IZeta= 3).
                        Self-potential: point-specific (ISelfS= 7).
                        Self-field    : sphere-specific E.n sum rule (ISelfD= 2).
 1st derivatives      : Analytical E(r).r(x)/FMM algorithm (CHGder, D1EAlg=3).
                        Cavity 1st derivative terms included.
 Solvent              : TetraHydroFuran, Eps=   7.425700 Eps(inf)=   1.974025
 ------------------------------------------------------------------------------
 One-electron integrals computed using PRISM.
 NBasis=   751 RedAO= T EigKep=  2.24D-04  NBF=   751
 NBsUse=   751 1.00D-06 EigRej= -1.00D+00 NBFU=   751
 Initial guess from the checkpoint file:  "checkpoint.chk"
 B after Tr=    -0.000000    0.000000   -0.000046
         Rot=    1.000000   -0.000006   -0.000001    0.000000 Ang=  -0.00 deg.
 Requested convergence on RMS density matrix=1.00D-08 within 128 cycles.
 Requested convergence on MAX density matrix=1.00D-06.
 Requested convergence on             energy=1.00D-06.
 No special actions if energy rises.
 Inv3:  Mode=1 IEnd=    73864332.
 Iteration    1 A*A^-1 deviation from unit magnitude is 3.33D-15 for    924.
 Iteration    1 A*A^-1 deviation from orthogonality  is 2.33D-15 for   2834   1085.
 Iteration    1 A^-1*A deviation from unit magnitude is 3.33D-15 for   3398.
 Iteration    1 A^-1*A deviation from orthogonality  is 2.11D-15 for   3041   2142.
 Error on total polarization charges =  0.02143
 SCF Done:  E(RwB97XD) =  -5421.44460095     A.U. after   10 cycles
            NFock= 10  Conv=0.25D-08     -V/T= 2.0041

 **********************************************************************

            Population analysis using the SCF density.

 **********************************************************************

 Alpha  occ. eigenvalues -- -482.95450-235.70869 -62.53492 -56.34054 -56.34042
 Alpha  occ. eigenvalues --  -56.34037 -27.47536 -23.53468 -23.53109 -23.53047
 Alpha  occ. eigenvalues --  -19.34579 -19.34549 -19.34480 -14.50816 -14.50808
 Alpha  occ. eigenvalues --  -14.46642 -10.42153 -10.42149 -10.42108 -10.37155
 Alpha  occ. eigenvalues --  -10.37146 -10.36612 -10.36597 -10.36290 -10.35591
 Alpha  occ. eigenvalues --  -10.34658 -10.34642 -10.34560 -10.34550 -10.33579
 Alpha  occ. eigenvalues --  -10.33563 -10.33446 -10.33343 -10.33330 -10.33279
 Alpha  occ. eigenvalues --  -10.33273 -10.33252 -10.32880 -10.32874 -10.32638
 Alpha  occ. eigenvalues --  -10.32390 -10.32331 -10.32322 -10.32278 -10.32115
 Alpha  occ. eigenvalues --  -10.32032 -10.32002 -10.31995 -10.31849 -10.31845
 Alpha  occ. eigenvalues --   -8.70244  -6.51946  -6.51911  -6.51893  -3.26993
 Alpha  occ. eigenvalues --   -2.62450  -2.62444  -2.62430  -2.62402  -2.62400
 Alpha  occ. eigenvalues --   -2.12859  -2.11934  -2.11839  -1.23595  -1.23522
 Alpha  occ. eigenvalues --   -1.23336  -1.08601  -1.08292  -1.02155  -1.00303
 Alpha  occ. eigenvalues --   -0.97878  -0.97631  -0.94480  -0.93281  -0.91392
 Alpha  occ. eigenvalues --   -0.90866  -0.89860  -0.88166  -0.87492  -0.86416
 Alpha  occ. eigenvalues --   -0.85280  -0.85010  -0.81928  -0.76800  -0.75890
 Alpha  occ. eigenvalues --   -0.75416  -0.75397  -0.74764  -0.74595  -0.74404
 Alpha  occ. eigenvalues --   -0.72311  -0.72001  -0.70290  -0.69012  -0.68211
 Alpha  occ. eigenvalues --   -0.65748  -0.65265  -0.65173  -0.64939  -0.64543
 Alpha  occ. eigenvalues --   -0.64525  -0.62674  -0.62128  -0.61074  -0.60185
 Alpha  occ. eigenvalues --   -0.59149  -0.58430  -0.57661  -0.57535  -0.57259
 Alpha  occ. eigenvalues --   -0.56934  -0.56634  -0.56504  -0.56108  -0.55969
 Alpha  occ. eigenvalues --   -0.55728  -0.55289  -0.54924  -0.54846  -0.54461
 Alpha  occ. eigenvalues --   -0.54383  -0.54049  -0.53365  -0.52994  -0.52542
 Alpha  occ. eigenvalues --   -0.52476  -0.52469  -0.51995  -0.51303  -0.51259
 Alpha  occ. eigenvalues --   -0.51137  -0.51126  -0.50557  -0.49464  -0.49101
 Alpha  occ. eigenvalues --   -0.48548  -0.47988  -0.47408  -0.47317  -0.46044
 Alpha  occ. eigenvalues --   -0.45766  -0.45145  -0.44922  -0.43753  -0.43718
 Alpha  occ. eigenvalues --   -0.43386  -0.42442  -0.41857  -0.41242  -0.40727
 Alpha  occ. eigenvalues --   -0.40365  -0.39660  -0.37837  -0.36581  -0.35653
 Alpha  occ. eigenvalues --   -0.35161  -0.33665  -0.33580  -0.33351  -0.33256
 Alpha  occ. eigenvalues --   -0.32218  -0.29676  -0.29549  -0.29260  -0.28006
 Alpha virt. eigenvalues --   -0.03076  -0.00631  -0.00228   0.00665   0.00885
 Alpha virt. eigenvalues --    0.01822   0.01972   0.02429   0.03948   0.04362
 Alpha virt. eigenvalues --    0.04411   0.06214   0.06762   0.06933   0.08994
 Alpha virt. eigenvalues --    0.09086   0.09320   0.09653   0.10278   0.10456
 Alpha virt. eigenvalues --    0.11514   0.12856   0.13150   0.13653   0.14140
 Alpha virt. eigenvalues --    0.14328   0.14515   0.15208   0.15299   0.15869
 Alpha virt. eigenvalues --    0.15969   0.16678   0.17421   0.17928   0.18748
 Alpha virt. eigenvalues --    0.18765   0.19434   0.19561   0.19965   0.20426
 Alpha virt. eigenvalues --    0.20692   0.21554   0.21948   0.22204   0.22549
 Alpha virt. eigenvalues --    0.22633   0.23076   0.23348   0.23566   0.24793
 Alpha virt. eigenvalues --    0.25805   0.26055   0.26284   0.27058   0.27633
 Alpha virt. eigenvalues --    0.28224   0.29140   0.29835   0.29958   0.30304
 Alpha virt. eigenvalues --    0.30590   0.31065   0.31321   0.31845   0.32138
 Alpha virt. eigenvalues --    0.32258   0.32387   0.32952   0.33573   0.33858
 Alpha virt. eigenvalues --    0.34153   0.34551   0.34959   0.35259   0.35505
 Alpha virt. eigenvalues --    0.35740   0.35879   0.36107   0.36534   0.36617
 Alpha virt. eigenvalues --    0.37667   0.37774   0.38516   0.38708   0.39173
 Alpha virt. eigenvalues --    0.39992   0.40344   0.41294   0.41500   0.42061
 Alpha virt. eigenvalues --    0.42084   0.42416   0.42829   0.44052   0.44123
 Alpha virt. eigenvalues --    0.44658   0.45434   0.45902   0.46661   0.47142
 Alpha virt. eigenvalues --    0.47615   0.47851   0.48131   0.48198   0.48660
 Alpha virt. eigenvalues --    0.49957   0.50343   0.50642   0.50978   0.51237
 Alpha virt. eigenvalues --    0.51387   0.51829   0.52338   0.52571   0.52721
 Alpha virt. eigenvalues --    0.52929   0.53258   0.53613   0.54217   0.54538
 Alpha virt. eigenvalues --    0.54715   0.54938   0.55107   0.55695   0.56045
 Alpha virt. eigenvalues --    0.56169   0.56612   0.57290   0.57442   0.57611
 Alpha virt. eigenvalues --    0.58117   0.58841   0.59166   0.60149   0.60188
 Alpha virt. eigenvalues --    0.60481   0.60537   0.61090   0.61536   0.61562
 Alpha virt. eigenvalues --    0.61655   0.63252   0.63679   0.64164   0.64797
 Alpha virt. eigenvalues --    0.64870   0.65512   0.65575   0.66391   0.66852
 Alpha virt. eigenvalues --    0.67113   0.67512   0.67782   0.67969   0.68594
 Alpha virt. eigenvalues --    0.68665   0.69960   0.70448   0.70463   0.70837
 Alpha virt. eigenvalues --    0.71289   0.71714   0.71841   0.71962   0.72437
 Alpha virt. eigenvalues --    0.72724   0.72906   0.73016   0.73390   0.73444
 Alpha virt. eigenvalues --    0.73851   0.74055   0.74407   0.74728   0.74775
 Alpha virt. eigenvalues --    0.75330   0.75492   0.75676   0.75864   0.76425
 Alpha virt. eigenvalues --    0.76803   0.77012   0.77094   0.77677   0.78345
 Alpha virt. eigenvalues --    0.78428   0.78798   0.79081   0.79463   0.79631
 Alpha virt. eigenvalues --    0.80318   0.80483   0.80641   0.81156   0.81562
 Alpha virt. eigenvalues --    0.81687   0.81747   0.82534   0.82826   0.83703
 Alpha virt. eigenvalues --    0.83883   0.83944   0.84179   0.84541   0.84952
 Alpha virt. eigenvalues --    0.85264   0.85470   0.85590   0.86366   0.86932
 Alpha virt. eigenvalues --    0.86982   0.87336   0.87585   0.87834   0.88091
 Alpha virt. eigenvalues --    0.88432   0.89182   0.89271   0.90109   0.90253
 Alpha virt. eigenvalues --    0.90398   0.91416   0.91567   0.91687   0.92314
 Alpha virt. eigenvalues --    0.93825   0.94113   0.94329   0.94615   0.95171
 Alpha virt. eigenvalues --    0.95551   0.95790   0.96400   0.96945   0.97916
 Alpha virt. eigenvalues --    0.98167   0.98771   0.99050   0.99928   1.01484
 Alpha virt. eigenvalues --    1.01650   1.02258   1.03322   1.04782   1.04871
 Alpha virt. eigenvalues --    1.06583   1.07488   1.08879   1.09256   1.09530
 Alpha virt. eigenvalues --    1.10998   1.11360   1.13138   1.13664   1.14654
 Alpha virt. eigenvalues --    1.14821   1.15072   1.15866   1.16046   1.16211
 Alpha virt. eigenvalues --    1.16940   1.17830   1.18102   1.20812   1.21678
 Alpha virt. eigenvalues --    1.22020   1.22399   1.22964   1.24406   1.24561
 Alpha virt. eigenvalues --    1.24944   1.25173   1.25643   1.26220   1.26293
 Alpha virt. eigenvalues --    1.27537   1.27952   1.28437   1.28486   1.29548
 Alpha virt. eigenvalues --    1.29717   1.30257   1.30695   1.30740   1.30905
 Alpha virt. eigenvalues --    1.31492   1.32315   1.33092   1.33687   1.33904
 Alpha virt. eigenvalues --    1.34207   1.34448   1.34788   1.35320   1.35557
 Alpha virt. eigenvalues --    1.35871   1.35894   1.36200   1.37547   1.37660
 Alpha virt. eigenvalues --    1.38224   1.38354   1.38527   1.40217   1.40708
 Alpha virt. eigenvalues --    1.41966   1.42185   1.43183   1.43370   1.44535
 Alpha virt. eigenvalues --    1.45456   1.46746   1.48077   1.48175   1.49402
 Alpha virt. eigenvalues --    1.50470   1.54890   1.55600   1.55679   1.58904
 Alpha virt. eigenvalues --    1.59143   1.59885   1.62371   1.63631   1.64307
 Alpha virt. eigenvalues --    1.64907   1.65579   1.66559   1.67563   1.67773
 Alpha virt. eigenvalues --    1.68765   1.69729   1.70941   1.71703   1.72026
 Alpha virt. eigenvalues --    1.72838   1.73013   1.73258   1.73684   1.73806
 Alpha virt. eigenvalues --    1.74428   1.74743   1.75047   1.75481   1.76003
 Alpha virt. eigenvalues --    1.77225   1.77266   1.78099   1.78469   1.78660
 Alpha virt. eigenvalues --    1.78735   1.79400   1.79548   1.79943   1.80022
 Alpha virt. eigenvalues --    1.80389   1.80907   1.81462   1.81627   1.81806
 Alpha virt. eigenvalues --    1.81933   1.82092   1.82234   1.82644   1.82947
 Alpha virt. eigenvalues --    1.83416   1.84105   1.84305   1.84701   1.84877
 Alpha virt. eigenvalues --    1.85666   1.86099   1.86401   1.87097   1.87406
 Alpha virt. eigenvalues --    1.87653   1.87872   1.88295   1.89698   1.89769
 Alpha virt. eigenvalues --    1.90380   1.90390   1.91078   1.91254   1.91853
 Alpha virt. eigenvalues --    1.93363   1.94162   1.94321   1.95548   1.96081
 Alpha virt. eigenvalues --    1.96776   1.97088   1.97575   1.98314   1.99282
 Alpha virt. eigenvalues --    1.99393   2.00592   2.01152   2.01431   2.02199
 Alpha virt. eigenvalues --    2.02567   2.02833   2.03216   2.03866   2.04510
 Alpha virt. eigenvalues --    2.04823   2.04995   2.05423   2.05737   2.06135
 Alpha virt. eigenvalues --    2.06933   2.07932   2.09214   2.10064   2.10351
 Alpha virt. eigenvalues --    2.10929   2.11070   2.11847   2.12283   2.13924
 Alpha virt. eigenvalues --    2.14629   2.15516   2.15827   2.16624   2.16711
 Alpha virt. eigenvalues --    2.16846   2.17880   2.18162   2.18592   2.19588
 Alpha virt. eigenvalues --    2.20334   2.20567   2.20888   2.21319   2.21566
 Alpha virt. eigenvalues --    2.23280   2.23575   2.24383   2.24516   2.25804
 Alpha virt. eigenvalues --    2.26114   2.29375   2.29966   2.30736   2.31367
 Alpha virt. eigenvalues --    2.31465   2.31666   2.32815   2.33451   2.34417
 Alpha virt. eigenvalues --    2.34998   2.35841   2.36062   2.36679   2.37392
 Alpha virt. eigenvalues --    2.37640   2.37772   2.38133   2.38455   2.38836
 Alpha virt. eigenvalues --    2.39565   2.39698   2.41342   2.41779   2.42684
 Alpha virt. eigenvalues --    2.44070   2.45206   2.45228   2.46164   2.46723
 Alpha virt. eigenvalues --    2.47509   2.48029   2.49901   2.49976   2.50721
 Alpha virt. eigenvalues --    2.53627   2.54881   2.56236   2.57333   2.59230
 Alpha virt. eigenvalues --    2.60221   2.60990   2.61535   2.63768   2.64676
 Alpha virt. eigenvalues --    2.65771   2.65964   2.66727   2.67003   2.67569
 Alpha virt. eigenvalues --    2.67639   2.68240   2.69480   2.69821   2.69877
 Alpha virt. eigenvalues --    2.70036   2.70323   2.70408   2.70880   2.71110
 Alpha virt. eigenvalues --    2.72106   2.72445   2.72721   2.74322   2.74770
 Alpha virt. eigenvalues --    2.75737   2.77000   2.79231   2.79454   2.80058
 Alpha virt. eigenvalues --    2.80124   2.80337   2.80466   2.81824   2.82261
 Alpha virt. eigenvalues --    2.84526   2.85249   2.85777   2.86412   2.87058
 Alpha virt. eigenvalues --    2.87178   2.89628   2.91418   2.91873   2.94574
 Alpha virt. eigenvalues --    2.95897   2.97864   2.98469   2.99080   3.01340
 Alpha virt. eigenvalues --    3.02742   3.05011   3.05838   3.06159   3.07096
 Alpha virt. eigenvalues --    3.08634   3.09703   3.10251   3.11774   3.12512
 Alpha virt. eigenvalues --    3.15831   3.16231   3.19168   3.19723   3.20318
 Alpha virt. eigenvalues --    3.20731   3.20962   3.21892   3.22244   3.24162
 Alpha virt. eigenvalues --    3.24722   3.29755   3.29915   3.32661   3.32888
 Alpha virt. eigenvalues --    3.38115   3.39038   3.41616   3.45669   3.45951
 Alpha virt. eigenvalues --    3.47219   3.50718   3.52353   3.55487   3.58475
 Alpha virt. eigenvalues --    3.60568   3.62393   3.63149   3.63234   3.63510
 Alpha virt. eigenvalues --    3.63826   3.65784   3.66479   3.71965   3.72713
 Alpha virt. eigenvalues --    3.75731   3.75935   3.76575   3.78847   3.79450
 Alpha virt. eigenvalues --    3.82130   3.85097   3.92417   3.95062   4.02491
 Alpha virt. eigenvalues --    4.08526
 Electronic spatial extent (au):  <R**2>=          25433.6045
 Charge=              0.0000 electrons
 Dipole moment (field-independent basis, Debye):
    X=             19.7655    Y=             14.4256    Z=              0.2466  Tot=             24.4711
 Quadrupole moment (field-independent basis, Debye-Ang):
   XX=           -308.1992   YY=           -250.2943   ZZ=           -219.8938
   XY=            -55.8826   XZ=             -1.6732   YZ=             -1.4389
 Traceless Quadrupole moment (field-independent basis, Debye-Ang):
   XX=            -48.7368   YY=              9.1681   ZZ=             39.5686
   XY=            -55.8826   XZ=             -1.6732   YZ=             -1.4389
 Octapole moment (field-independent basis, Debye-Ang**2):
  XXX=            512.4531  YYY=            116.1107  ZZZ=              1.9886  XYY=           -130.6922
  XXY=            290.7011  XXZ=             12.2654  XZZ=             49.7713  YZZ=             10.7680
  YYZ=             -2.9357  XYZ=            -10.5020
 Hexadecapole moment (field-independent basis, Debye-Ang**3):
 XXXX=         -19177.7344 YYYY=          -7166.2471 ZZZZ=          -5533.8386 XXXY=          -1221.8729
 XXXZ=            -63.8840 YYYX=           -623.4024 YYYZ=             13.4202 ZZZX=             11.9281
 ZZZY=            -32.2244 XXYY=          -4544.7659 XXZZ=          -3815.2778 YYZZ=          -2544.3330
 XXYZ=             17.8955 YYXZ=            -30.3465 ZZXY=            133.4929
 N-N= 5.860121113152D+03 E-N=-2.454764384294D+04  KE= 5.399270025960D+03
 D1PCM: PCM CHGder 1st derivatives, ID1Alg=3 FixD1E=F DoIter=F DoCFld=F I1PDM=0.
 Calling FoFJK, ICntrl=      2127 FMM=T ISym2X=0 I1Cent= 0 IOpClX= 0 NMat=1 NMatS=1 NMatT=0.
 -------------------------------------------------------------------
 Center     Atomic                   Forces (Hartrees/Bohr)
 Number     Number              X              Y              Z
 -------------------------------------------------------------------
      1       25          -0.000065678   -0.000053962    0.000135597
      2        6           0.000028878   -0.000035967   -0.000010505
      3        8          -0.000006126    0.000012581    0.000002503
      4        6           0.000009440   -0.000067775   -0.000026890
      5        8           0.000008011   -0.000010860    0.000002411
      6        6           0.000040135   -0.000073761   -0.000124981
      7        7          -0.000126865    0.000018802   -0.000079772
      8        6          -0.000008642   -0.000051579    0.000036045
      9        6           0.000002362    0.000004818    0.000017421
     10        6           0.000035643   -0.000002119   -0.000013538
     11        1          -0.000015386    0.000020613   -0.000017822
     12        1           0.000000733    0.000002495   -0.000000590
     13        7           0.000207882    0.000075978   -0.000057546
     14        6          -0.000094185    0.000023485    0.000102308
     15        6          -0.000048504   -0.000009374   -0.000038507
     16        6          -0.000035932    0.000003277   -0.000015639
     17        6          -0.000006394   -0.000016370    0.000001494
     18        6          -0.000182880    0.000091230    0.000097574
     19        1           0.000004426   -0.000014521   -0.000004687
     20        1           0.000230900   -0.000085176   -0.000099875
     21        7          -0.000045070    0.000022635   -0.000002659
     22        6          -0.000000167   -0.000030721   -0.000011330
     23        6           0.000002748    0.000011163   -0.000004831
     24        1          -0.000045358   -0.000015197    0.000039920
     25        6          -0.000004305   -0.000013748   -0.000009007
     26        1          -0.000005157   -0.000008036   -0.000001925
     27        6           0.000029413    0.000015407    0.000004599
     28        1           0.000007950   -0.000003803   -0.000008768
     29        1          -0.000005977   -0.000000784    0.000001653
     30        8          -0.000037325    0.000059167    0.000057651
     31        6           0.000047105    0.000002395    0.000119420
     32        6           0.000018379    0.000023153   -0.000046590
     33        6           0.000012355    0.000024078    0.000022643
     34        6           0.000026244    0.000013218   -0.000030184
     35        6          -0.000009139    0.000006758   -0.000004733
     36        6           0.000000150    0.000004838    0.000008824
     37        6           0.000009122    0.000005484   -0.000007622
     38        6          -0.000017995    0.000001250    0.000025000
     39        6          -0.000023003    0.000021044   -0.000037010
     40        1          -0.000000273    0.000002783    0.000002298
     41        1           0.000004242    0.000004888    0.000003734
     42        1           0.000003447    0.000005517   -0.000002183
     43        6           0.000004145   -0.000006051    0.000029778
     44        6           0.000008438    0.000004558   -0.000000322
     45        6           0.000002152    0.000003764   -0.000004732
     46        6          -0.000005011    0.000005070    0.000000287
     47        6           0.000001221    0.000002410    0.000009856
     48        6           0.000006426    0.000009101   -0.000030781
     49        1          -0.000003624    0.000005575   -0.000000005
     50        1           0.000000594    0.000006537    0.000000306
     51        1          -0.000004589    0.000003540   -0.000002573
     52        6          -0.000003193   -0.000010047   -0.000015999
     53        1           0.000001317    0.000002729   -0.000003329
     54        6          -0.000000182   -0.000022497   -0.000004072
     55        1           0.000002665    0.000000868   -0.000006076
     56        1          -0.000002542    0.000002955    0.000002623
     57        6          -0.000004165   -0.000006194    0.000003668
     58        6           0.000001079    0.000011228    0.000000561
     59        1          -0.000003387   -0.000008615    0.000001626
     60        1          -0.000005117   -0.000007505   -0.000001921
     61       35           0.000002768    0.000024855    0.000010004
     62        1           0.000050916    0.000002709   -0.000022675
     63        1           0.000004881   -0.000008292    0.000009868
 -------------------------------------------------------------------
 Cartesian Forces:  Max     0.000230900 RMS     0.000042274
 NDeriv=    189 NFrqRd=  0 NDerD0=      0 MskFDP=       0 MskDFD=       0 MskDF0=       0
 Re-enter D2Numr:  atom  30 IXYZ=3 step-down number 1
 Basis read from rwf:  (5D, 7F)
   751 basis functions,  1339 primitive gaussians,   802 cartesian basis functions
   165 alpha electrons      165 beta electrons
       nuclear repulsion energy      5860.1829406315 Hartrees.
 NAtoms=   63 NActive=   63 NUniq=   63 SFac= 1.00D+00 NAtFMM=   60 NAOKFM=T Big=T
 Integral buffers will be    131072 words long.
 Raffenetti 2 integral format.
 Two-electron integral symmetry is turned off.
 Nuclear repulsion after empirical dispersion term =     5860.1198717276 Hartrees.
 ------------------------------------------------------------------------------
 Polarizable Continuum Model (PCM)
 =================================
 Model                : PCM.
 Atomic radii         : UFF (Universal Force Field).
 Polarization charges : Total charges.
 Charge compensation  : None.
 Solution method      : On-the-fly selection.
 Cavity type          : Scaled VdW (van der Waals Surface) (Alpha=1.100).
 Cavity algorithm     : GePol (No added spheres)
                        Default sphere list used, NSphG=   63.
                        Lebedev-Laikov grids with approx.  5.0 points / Ang**2.
                        Smoothing algorithm: York/Karplus (Gamma=1.0000).
                        Polarization charges: spherical gaussians, with
                                              point-specific exponents (IZeta= 3).
                        Self-potential: point-specific (ISelfS= 7).
                        Self-field    : sphere-specific E.n sum rule (ISelfD= 2).
 1st derivatives      : Analytical E(r).r(x)/FMM algorithm (CHGder, D1EAlg=3).
                        Cavity 1st derivative terms included.
 Solvent              : TetraHydroFuran, Eps=   7.425700 Eps(inf)=   1.974025
 ------------------------------------------------------------------------------
 One-electron integrals computed using PRISM.
 NBasis=   751 RedAO= T EigKep=  2.24D-04  NBF=   751
 NBsUse=   751 1.00D-06 EigRej= -1.00D+00 NBFU=   751
 Initial guess from the checkpoint file:  "checkpoint.chk"
 B after Tr=     0.000034    0.000000    0.000000
         Rot=    1.000000    0.000000   -0.000000    0.000000 Ang=  -0.00 deg.
 Requested convergence on RMS density matrix=1.00D-08 within 128 cycles.
 Requested convergence on MAX density matrix=1.00D-06.
 Requested convergence on             energy=1.00D-06.
 No special actions if energy rises.
 Inv3:  Mode=1 IEnd=    73864332.
 Iteration    1 A*A^-1 deviation from unit magnitude is 4.33D-15 for    250.
 Iteration    1 A*A^-1 deviation from orthogonality  is 2.33D-15 for   3268    472.
 Iteration    1 A^-1*A deviation from unit magnitude is 4.11D-15 for    250.
 Iteration    1 A^-1*A deviation from orthogonality  is 2.89D-15 for   2778   1883.
 Error on total polarization charges =  0.02143
 SCF Done:  E(RwB97XD) =  -5421.44459975     A.U. after    7 cycles
            NFock=  7  Conv=0.67D-08     -V/T= 2.0041

 **********************************************************************

            Population analysis using the SCF density.

 **********************************************************************

 Alpha  occ. eigenvalues -- -482.95450-235.70868 -62.53491 -56.34054 -56.34042
 Alpha  occ. eigenvalues --  -56.34037 -27.47536 -23.53468 -23.53109 -23.53047
 Alpha  occ. eigenvalues --  -19.34579 -19.34549 -19.34480 -14.50816 -14.50808
 Alpha  occ. eigenvalues --  -14.46642 -10.42153 -10.42149 -10.42107 -10.37155
 Alpha  occ. eigenvalues --  -10.37146 -10.36612 -10.36597 -10.36290 -10.35591
 Alpha  occ. eigenvalues --  -10.34657 -10.34642 -10.34559 -10.34550 -10.33580
 Alpha  occ. eigenvalues --  -10.33565 -10.33446 -10.33342 -10.33329 -10.33274
 Alpha  occ. eigenvalues --  -10.33269 -10.33251 -10.32879 -10.32873 -10.32638
 Alpha  occ. eigenvalues --  -10.32390 -10.32332 -10.32323 -10.32278 -10.32113
 Alpha  occ. eigenvalues --  -10.32030 -10.32002 -10.31995 -10.31849 -10.31845
 Alpha  occ. eigenvalues --   -8.70244  -6.51946  -6.51911  -6.51893  -3.26992
 Alpha  occ. eigenvalues --   -2.62450  -2.62444  -2.62430  -2.62402  -2.62400
 Alpha  occ. eigenvalues --   -2.12858  -2.11933  -2.11838  -1.23595  -1.23522
 Alpha  occ. eigenvalues --   -1.23338  -1.08600  -1.08292  -1.02155  -1.00306
 Alpha  occ. eigenvalues --   -0.97878  -0.97632  -0.94480  -0.93281  -0.91396
 Alpha  occ. eigenvalues --   -0.90866  -0.89860  -0.88166  -0.87493  -0.86416
 Alpha  occ. eigenvalues --   -0.85280  -0.85013  -0.81928  -0.76801  -0.75891
 Alpha  occ. eigenvalues --   -0.75417  -0.75397  -0.74764  -0.74595  -0.74402
 Alpha  occ. eigenvalues --   -0.72314  -0.72000  -0.70286  -0.69013  -0.68210
 Alpha  occ. eigenvalues --   -0.65748  -0.65265  -0.65173  -0.64938  -0.64544
 Alpha  occ. eigenvalues --   -0.64526  -0.62672  -0.62130  -0.61074  -0.60185
 Alpha  occ. eigenvalues --   -0.59149  -0.58430  -0.57664  -0.57535  -0.57259
 Alpha  occ. eigenvalues --   -0.56934  -0.56633  -0.56503  -0.56108  -0.55969
 Alpha  occ. eigenvalues --   -0.55725  -0.55289  -0.54925  -0.54845  -0.54460
 Alpha  occ. eigenvalues --   -0.54384  -0.54049  -0.53366  -0.52994  -0.52542
 Alpha  occ. eigenvalues --   -0.52471  -0.52469  -0.51994  -0.51305  -0.51264
 Alpha  occ. eigenvalues --   -0.51136  -0.51126  -0.50556  -0.49463  -0.49099
 Alpha  occ. eigenvalues --   -0.48548  -0.47988  -0.47408  -0.47318  -0.46044
 Alpha  occ. eigenvalues --   -0.45766  -0.45145  -0.44922  -0.43756  -0.43719
 Alpha  occ. eigenvalues --   -0.43384  -0.42438  -0.41857  -0.41242  -0.40729
 Alpha  occ. eigenvalues --   -0.40365  -0.39661  -0.37836  -0.36580  -0.35653
 Alpha  occ. eigenvalues --   -0.35161  -0.33665  -0.33579  -0.33352  -0.33256
 Alpha  occ. eigenvalues --   -0.32218  -0.29676  -0.29549  -0.29260  -0.28007
 Alpha virt. eigenvalues --   -0.03075  -0.00631  -0.00228   0.00665   0.00885
 Alpha virt. eigenvalues --    0.01824   0.01972   0.02428   0.03948   0.04362
 Alpha virt. eigenvalues --    0.04411   0.06215   0.06763   0.06933   0.08994
 Alpha virt. eigenvalues --    0.09086   0.09326   0.09653   0.10278   0.10457
 Alpha virt. eigenvalues --    0.11516   0.12856   0.13149   0.13653   0.14140
 Alpha virt. eigenvalues --    0.14328   0.14514   0.15208   0.15298   0.15869
 Alpha virt. eigenvalues --    0.15969   0.16677   0.17421   0.17929   0.18748
 Alpha virt. eigenvalues --    0.18765   0.19434   0.19561   0.19960   0.20426
 Alpha virt. eigenvalues --    0.20691   0.21554   0.21947   0.22204   0.22548
 Alpha virt. eigenvalues --    0.22632   0.23077   0.23348   0.23566   0.24795
 Alpha virt. eigenvalues --    0.25806   0.26055   0.26284   0.27057   0.27638
 Alpha virt. eigenvalues --    0.28224   0.29140   0.29834   0.29965   0.30302
 Alpha virt. eigenvalues --    0.30590   0.31065   0.31320   0.31844   0.32138
 Alpha virt. eigenvalues --    0.32258   0.32387   0.32953   0.33573   0.33857
 Alpha virt. eigenvalues --    0.34153   0.34552   0.34959   0.35259   0.35505
 Alpha virt. eigenvalues --    0.35741   0.35879   0.36110   0.36535   0.36616
 Alpha virt. eigenvalues --    0.37668   0.37775   0.38517   0.38708   0.39171
 Alpha virt. eigenvalues --    0.39988   0.40344   0.41292   0.41505   0.42065
 Alpha virt. eigenvalues --    0.42089   0.42414   0.42829   0.44053   0.44120
 Alpha virt. eigenvalues --    0.44658   0.45432   0.45901   0.46664   0.47142
 Alpha virt. eigenvalues --    0.47618   0.47851   0.48132   0.48199   0.48658
 Alpha virt. eigenvalues --    0.49956   0.50343   0.50642   0.50975   0.51234
 Alpha virt. eigenvalues --    0.51387   0.51829   0.52337   0.52574   0.52721
 Alpha virt. eigenvalues --    0.52930   0.53258   0.53615   0.54217   0.54537
 Alpha virt. eigenvalues --    0.54715   0.54939   0.55108   0.55695   0.56045
 Alpha virt. eigenvalues --    0.56168   0.56612   0.57291   0.57444   0.57612
 Alpha virt. eigenvalues --    0.58117   0.58841   0.59167   0.60149   0.60189
 Alpha virt. eigenvalues --    0.60483   0.60538   0.61090   0.61542   0.61565
 Alpha virt. eigenvalues --    0.61656   0.63252   0.63680   0.64164   0.64797
 Alpha virt. eigenvalues --    0.64872   0.65513   0.65575   0.66392   0.66851
 Alpha virt. eigenvalues --    0.67113   0.67513   0.67782   0.67969   0.68594
 Alpha virt. eigenvalues --    0.68664   0.69961   0.70448   0.70463   0.70836
 Alpha virt. eigenvalues --    0.71290   0.71714   0.71841   0.71962   0.72438
 Alpha virt. eigenvalues --    0.72725   0.72906   0.73016   0.73388   0.73444
 Alpha virt. eigenvalues --    0.73851   0.74055   0.74408   0.74729   0.74775
 Alpha virt. eigenvalues --    0.75330   0.75492   0.75675   0.75864   0.76425
 Alpha virt. eigenvalues --    0.76802   0.77011   0.77094   0.77681   0.78345
 Alpha virt. eigenvalues --    0.78428   0.78798   0.79081   0.79463   0.79632
 Alpha virt. eigenvalues --    0.80318   0.80484   0.80641   0.81156   0.81559
 Alpha virt. eigenvalues --    0.81687   0.81749   0.82534   0.82823   0.83703
 Alpha virt. eigenvalues --    0.83882   0.83944   0.84179   0.84543   0.84951
 Alpha virt. eigenvalues --    0.85272   0.85472   0.85589   0.86366   0.86934
 Alpha virt. eigenvalues --    0.86982   0.87337   0.87587   0.87834   0.88091
 Alpha virt. eigenvalues --    0.88433   0.89183   0.89271   0.90112   0.90254
 Alpha virt. eigenvalues --    0.90397   0.91416   0.91567   0.91690   0.92315
 Alpha virt. eigenvalues --    0.93828   0.94114   0.94331   0.94615   0.95171
 Alpha virt. eigenvalues --    0.95553   0.95790   0.96399   0.96948   0.97917
 Alpha virt. eigenvalues --    0.98168   0.98772   0.99052   0.99927   1.01484
 Alpha virt. eigenvalues --    1.01651   1.02258   1.03322   1.04782   1.04870
 Alpha virt. eigenvalues --    1.06582   1.07489   1.08880   1.09256   1.09530
 Alpha virt. eigenvalues --    1.10999   1.11364   1.13138   1.13665   1.14650
 Alpha virt. eigenvalues --    1.14826   1.15073   1.15866   1.16045   1.16210
 Alpha virt. eigenvalues --    1.16938   1.17831   1.18101   1.20812   1.21681
 Alpha virt. eigenvalues --    1.22020   1.22401   1.22963   1.24405   1.24565
 Alpha virt. eigenvalues --    1.24945   1.25173   1.25643   1.26223   1.26292
 Alpha virt. eigenvalues --    1.27536   1.27953   1.28438   1.28486   1.29548
 Alpha virt. eigenvalues --    1.29717   1.30257   1.30694   1.30740   1.30907
 Alpha virt. eigenvalues --    1.31490   1.32315   1.33091   1.33689   1.33903
 Alpha virt. eigenvalues --    1.34206   1.34449   1.34791   1.35321   1.35556
 Alpha virt. eigenvalues --    1.35872   1.35893   1.36200   1.37547   1.37660
 Alpha virt. eigenvalues --    1.38225   1.38354   1.38529   1.40217   1.40709
 Alpha virt. eigenvalues --    1.41967   1.42185   1.43182   1.43368   1.44538
 Alpha virt. eigenvalues --    1.45456   1.46745   1.48076   1.48178   1.49398
 Alpha virt. eigenvalues --    1.50472   1.54898   1.55598   1.55679   1.58900
 Alpha virt. eigenvalues --    1.59143   1.59889   1.62372   1.63634   1.64307
 Alpha virt. eigenvalues --    1.64908   1.65578   1.66556   1.67560   1.67773
 Alpha virt. eigenvalues --    1.68765   1.69727   1.70938   1.71704   1.72027
 Alpha virt. eigenvalues --    1.72841   1.73013   1.73254   1.73684   1.73807
 Alpha virt. eigenvalues --    1.74430   1.74744   1.75045   1.75481   1.76003
 Alpha virt. eigenvalues --    1.77222   1.77267   1.78097   1.78468   1.78661
 Alpha virt. eigenvalues --    1.78734   1.79398   1.79547   1.79942   1.80022
 Alpha virt. eigenvalues --    1.80389   1.80909   1.81463   1.81628   1.81806
 Alpha virt. eigenvalues --    1.81930   1.82092   1.82236   1.82642   1.82948
 Alpha virt. eigenvalues --    1.83414   1.84105   1.84305   1.84702   1.84878
 Alpha virt. eigenvalues --    1.85666   1.86099   1.86402   1.87097   1.87406
 Alpha virt. eigenvalues --    1.87654   1.87874   1.88296   1.89698   1.89768
 Alpha virt. eigenvalues --    1.90386   1.90390   1.91072   1.91254   1.91855
 Alpha virt. eigenvalues --    1.93366   1.94162   1.94315   1.95549   1.96080
 Alpha virt. eigenvalues --    1.96775   1.97090   1.97574   1.98314   1.99282
 Alpha virt. eigenvalues --    1.99391   2.00590   2.01145   2.01433   2.02197
 Alpha virt. eigenvalues --    2.02564   2.02830   2.03215   2.03869   2.04510
 Alpha virt. eigenvalues --    2.04822   2.04996   2.05423   2.05736   2.06136
 Alpha virt. eigenvalues --    2.06932   2.07932   2.09211   2.10066   2.10357
 Alpha virt. eigenvalues --    2.10930   2.11070   2.11836   2.12279   2.13919
 Alpha virt. eigenvalues --    2.14631   2.15516   2.15815   2.16619   2.16712
 Alpha virt. eigenvalues --    2.16846   2.17877   2.18162   2.18595   2.19595
 Alpha virt. eigenvalues --    2.20335   2.20568   2.20887   2.21318   2.21564
 Alpha virt. eigenvalues --    2.23281   2.23577   2.24383   2.24503   2.25803
 Alpha virt. eigenvalues --    2.26121   2.29375   2.29961   2.30738   2.31366
 Alpha virt. eigenvalues --    2.31471   2.31667   2.32816   2.33452   2.34410
 Alpha virt. eigenvalues --    2.34998   2.35843   2.36060   2.36675   2.37392
 Alpha virt. eigenvalues --    2.37640   2.37779   2.38134   2.38454   2.38836
 Alpha virt. eigenvalues --    2.39562   2.39692   2.41342   2.41779   2.42683
 Alpha virt. eigenvalues --    2.44065   2.45214   2.45224   2.46162   2.46715
 Alpha virt. eigenvalues --    2.47509   2.48027   2.49900   2.49987   2.50725
 Alpha virt. eigenvalues --    2.53628   2.54878   2.56233   2.57329   2.59230
 Alpha virt. eigenvalues --    2.60220   2.60985   2.61525   2.63771   2.64674
 Alpha virt. eigenvalues --    2.65771   2.65967   2.66737   2.67003   2.67569
 Alpha virt. eigenvalues --    2.67639   2.68243   2.69480   2.69821   2.69877
 Alpha virt. eigenvalues --    2.70036   2.70324   2.70409   2.70880   2.71112
 Alpha virt. eigenvalues --    2.72111   2.72445   2.72729   2.74329   2.74793
 Alpha virt. eigenvalues --    2.75750   2.77000   2.79230   2.79449   2.80059
 Alpha virt. eigenvalues --    2.80123   2.80334   2.80466   2.81820   2.82261
 Alpha virt. eigenvalues --    2.84522   2.85231   2.85778   2.86406   2.87053
 Alpha virt. eigenvalues --    2.87168   2.89629   2.91420   2.91873   2.94574
 Alpha virt. eigenvalues --    2.95914   2.97819   2.98487   2.99080   3.01344
 Alpha virt. eigenvalues --    3.02747   3.05011   3.05835   3.06160   3.07096
 Alpha virt. eigenvalues --    3.08634   3.09704   3.10251   3.11774   3.12514
 Alpha virt. eigenvalues --    3.15836   3.16231   3.19172   3.19725   3.20318
 Alpha virt. eigenvalues --    3.20705   3.20971   3.21892   3.22246   3.24163
 Alpha virt. eigenvalues --    3.24722   3.29758   3.29915   3.32662   3.32901
 Alpha virt. eigenvalues --    3.38116   3.39038   3.41625   3.45669   3.45952
 Alpha virt. eigenvalues --    3.47220   3.50700   3.52353   3.55486   3.58475
 Alpha virt. eigenvalues --    3.60568   3.62394   3.63151   3.63233   3.63508
 Alpha virt. eigenvalues --    3.63826   3.65791   3.66483   3.71964   3.72731
 Alpha virt. eigenvalues --    3.75731   3.75935   3.76575   3.78847   3.79450
 Alpha virt. eigenvalues --    3.82130   3.85097   3.92417   3.95062   4.02492
 Alpha virt. eigenvalues --    4.08528
 Electronic spatial extent (au):  <R**2>=          25433.7319
 Charge=              0.0000 electrons
 Dipole moment (field-independent basis, Debye):
    X=             19.7660    Y=             14.4253    Z=              0.2459  Tot=             24.4713
 Quadrupole moment (field-independent basis, Debye-Ang):
   XX=           -308.2031   YY=           -250.2930   ZZ=           -219.8887
   XY=            -55.8834   XZ=             -1.6748   YZ=             -1.4350
 Traceless Quadrupole moment (field-independent basis, Debye-Ang):
   XX=            -48.7415   YY=              9.1686   ZZ=             39.5729
   XY=            -55.8834   XZ=             -1.6748   YZ=             -1.4350
 Octapole moment (field-independent basis, Debye-Ang**2):
  XXX=            512.3994  YYY=            116.1069  ZZZ=              1.9766  XYY=           -130.6890
  XXY=            290.6990  XXZ=             12.2605  XZZ=             49.7890  YZZ=             10.7687
  YYZ=             -2.9588  XYZ=            -10.4962
 Hexadecapole moment (field-independent basis, Debye-Ang**3):
 XXXX=         -19178.3586 YYYY=          -7166.2342 ZZZZ=          -5533.7345 XXXY=          -1221.9124
 XXXZ=            -63.8996 YYYX=           -623.4079 YYYZ=             13.5590 ZZZX=             11.9155
 ZZZY=            -32.1668 XXYY=          -4544.7930 XXZZ=          -3815.2335 YYZZ=          -2544.3223
 XXYZ=             17.9158 YYXZ=            -30.3768 ZZXY=            133.4949
 N-N= 5.860119871728D+03 E-N=-2.454764260290D+04  KE= 5.399270988525D+03
 D1PCM: PCM CHGder 1st derivatives, ID1Alg=3 FixD1E=F DoIter=F DoCFld=F I1PDM=0.
 Calling FoFJK, ICntrl=      2127 FMM=T ISym2X=0 I1Cent= 0 IOpClX= 0 NMat=1 NMatS=1 NMatT=0.
 -------------------------------------------------------------------
 Center     Atomic                   Forces (Hartrees/Bohr)
 Number     Number              X              Y              Z
 -------------------------------------------------------------------
      1       25          -0.000069196   -0.000052264    0.000093091
      2        6           0.000022339   -0.000027298   -0.000009374
      3        8          -0.000005503    0.000010327    0.000001240
      4        6           0.000017416   -0.000073845   -0.000029083
      5        8           0.000006346   -0.000010053    0.000003075
      6        6           0.000002100   -0.000037966   -0.000036119
      7        7          -0.000124533    0.000015966   -0.000080325
      8        6          -0.000008841   -0.000051557    0.000036038
      9        6           0.000002528    0.000004787    0.000017318
     10        6           0.000038894    0.000001028   -0.000018995
     11        1          -0.000015412    0.000020510   -0.000017744
     12        1           0.000000614    0.000002665   -0.000000679
     13        7           0.000207633    0.000076152   -0.000057252
     14        6          -0.000094113    0.000023337    0.000102295
     15        6          -0.000048484   -0.000009339   -0.000038542
     16        6          -0.000035916    0.000003278   -0.000015643
     17        6          -0.000006436   -0.000016369    0.000001498
     18        6          -0.000182847    0.000091255    0.000097568
     19        1           0.000004419   -0.000014568   -0.000004681
     20        1           0.000230900   -0.000085184   -0.000099876
     21        7          -0.000047233    0.000024485   -0.000003337
     22        6           0.000000067   -0.000030589   -0.000011896
     23        6           0.000002625    0.000011316   -0.000004854
     24        1          -0.000045338   -0.000015242    0.000039772
     25        6          -0.000004115   -0.000014091   -0.000009073
     26        1          -0.000005368   -0.000008071   -0.000001769
     27        6           0.000030194    0.000015469    0.000005073
     28        1           0.000008082   -0.000003847   -0.000008531
     29        1          -0.000005974   -0.000000778    0.000001653
     30        8           0.000003573    0.000020109    0.000013473
     31        6          -0.001381219    0.000080382    0.000122426
     32        6           0.000023818    0.000022456   -0.000046909
     33        6           0.000013551    0.000024908    0.000021341
     34        6          -0.000007239    0.000015373   -0.000044957
     35        6          -0.000009200    0.000008669   -0.000017087
     36        6           0.000005019    0.000005508    0.000006940
     37        6           0.000019784    0.000006174   -0.000009129
     38        6           0.000025526   -0.000004786    0.000080116
     39        6           0.000326189   -0.000001377    0.000191483
     40        1          -0.000001491    0.000002606    0.000000232
     41        1           0.000003979    0.000004803    0.000003863
     42        1           0.000004714    0.000005258    0.000000549
     43        6           0.000355375   -0.000011829   -0.000200983
     44        6           0.000052676    0.000002538   -0.000055116
     45        6           0.000012816    0.000004361   -0.000003297
     46        6           0.000000050    0.000005633    0.000002302
     47        6           0.000000906    0.000003375    0.000022429
     48        6          -0.000027195    0.000010103   -0.000016685
     49        1          -0.000002351    0.000005518   -0.000002731
     50        1           0.000000344    0.000006469    0.000000169
     51        1          -0.000005825    0.000003225   -0.000000546
     52        6          -0.000002082   -0.000009493   -0.000015183
     53        1           0.000001239    0.000002905   -0.000003196
     54        6           0.000001961   -0.000019661    0.000000805
     55        1           0.000003783    0.000001485   -0.000004983
     56        1          -0.000001802    0.000003630    0.000002309
     57        6          -0.000004164   -0.000006173    0.000003667
     58        6           0.000001070    0.000011240    0.000000564
     59        1          -0.000003396   -0.000008610    0.000001628
     60        1          -0.000005124   -0.000007498   -0.000001920
     61       35           0.000002463    0.000024881    0.000010430
     62        1           0.000049768    0.000002599   -0.000022693
     63        1           0.000667635   -0.000064295    0.000009844
 -------------------------------------------------------------------
 Cartesian Forces:  Max     0.001381219 RMS     0.000125646
 NDeriv=    189 NFrqRd=  0 NDerD0=      0 MskFDP=       0 MskDFD=       0 MskDF0=       0
 Re-enter D2Numr:  atom  31 IXYZ=1 step-up   number 1
 Basis read from rwf:  (5D, 7F)
   751 basis functions,  1339 primitive gaussians,   802 cartesian basis functions
   165 alpha electrons      165 beta electrons
       nuclear repulsion energy      5860.1890313117 Hartrees.
 NAtoms=   63 NActive=   63 NUniq=   63 SFac= 1.00D+00 NAtFMM=   60 NAOKFM=T Big=T
 Integral buffers will be    131072 words long.
 Raffenetti 2 integral format.
 Two-electron integral symmetry is turned off.
 Nuclear repulsion after empirical dispersion term =     5860.1259623128 Hartrees.
 ------------------------------------------------------------------------------
 Polarizable Continuum Model (PCM)
 =================================
 Model                : PCM.
 Atomic radii         : UFF (Universal Force Field).
 Polarization charges : Total charges.
 Charge compensation  : None.
 Solution method      : On-the-fly selection.
 Cavity type          : Scaled VdW (van der Waals Surface) (Alpha=1.100).
 Cavity algorithm     : GePol (No added spheres)
                        Default sphere list used, NSphG=   63.
                        Lebedev-Laikov grids with approx.  5.0 points / Ang**2.
                        Smoothing algorithm: York/Karplus (Gamma=1.0000).
                        Polarization charges: spherical gaussians, with
                                              point-specific exponents (IZeta= 3).
                        Self-potential: point-specific (ISelfS= 7).
                        Self-field    : sphere-specific E.n sum rule (ISelfD= 2).
 1st derivatives      : Analytical E(r).r(x)/FMM algorithm (CHGder, D1EAlg=3).
                        Cavity 1st derivative terms included.
 Solvent              : TetraHydroFuran, Eps=   7.425700 Eps(inf)=   1.974025
 ------------------------------------------------------------------------------
 One-electron integrals computed using PRISM.
 NBasis=   751 RedAO= T EigKep=  2.24D-04  NBF=   751
 NBsUse=   751 1.00D-06 EigRej= -1.00D+00 NBFU=   751
 Initial guess from the checkpoint file:  "checkpoint.chk"
 B after Tr=    -0.000034   -0.000000   -0.000000
         Rot=    1.000000   -0.000000    0.000000   -0.000000 Ang=   0.00 deg.
 Requested convergence on RMS density matrix=1.00D-08 within 128 cycles.
 Requested convergence on MAX density matrix=1.00D-06.
 Requested convergence on             energy=1.00D-06.
 No special actions if energy rises.
 Inv3:  Mode=1 IEnd=    73864332.
 Iteration    1 A*A^-1 deviation from unit magnitude is 3.55D-15 for   4735.
 Iteration    1 A*A^-1 deviation from orthogonality  is 3.55D-15 for   3643   1277.
 Iteration    1 A^-1*A deviation from unit magnitude is 3.44D-15 for   2675.
 Iteration    1 A^-1*A deviation from orthogonality  is 2.89D-15 for   2779   1884.
 Error on total polarization charges =  0.02143
 SCF Done:  E(RwB97XD) =  -5421.44459957     A.U. after    7 cycles
            NFock=  7  Conv=0.67D-08     -V/T= 2.0041

 **********************************************************************

            Population analysis using the SCF density.

 **********************************************************************

 Alpha  occ. eigenvalues -- -482.95450-235.70868 -62.53491 -56.34054 -56.34042
 Alpha  occ. eigenvalues --  -56.34037 -27.47536 -23.53468 -23.53109 -23.53047
 Alpha  occ. eigenvalues --  -19.34579 -19.34549 -19.34480 -14.50816 -14.50808
 Alpha  occ. eigenvalues --  -14.46642 -10.42153 -10.42149 -10.42107 -10.37155
 Alpha  occ. eigenvalues --  -10.37146 -10.36612 -10.36597 -10.36290 -10.35591
 Alpha  occ. eigenvalues --  -10.34657 -10.34642 -10.34560 -10.34550 -10.33577
 Alpha  occ. eigenvalues --  -10.33562 -10.33446 -10.33343 -10.33330 -10.33283
 Alpha  occ. eigenvalues --  -10.33277 -10.33252 -10.32882 -10.32875 -10.32638
 Alpha  occ. eigenvalues --  -10.32390 -10.32330 -10.32321 -10.32278 -10.32117
 Alpha  occ. eigenvalues --  -10.32034 -10.32002 -10.31996 -10.31848 -10.31844
 Alpha  occ. eigenvalues --   -8.70244  -6.51946  -6.51911  -6.51893  -3.26993
 Alpha  occ. eigenvalues --   -2.62450  -2.62444  -2.62430  -2.62402  -2.62400
 Alpha  occ. eigenvalues --   -2.12858  -2.11933  -2.11838  -1.23595  -1.23522
 Alpha  occ. eigenvalues --   -1.23338  -1.08601  -1.08293  -1.02156  -1.00299
 Alpha  occ. eigenvalues --   -0.97879  -0.97631  -0.94479  -0.93281  -0.91389
 Alpha  occ. eigenvalues --   -0.90867  -0.89860  -0.88166  -0.87492  -0.86416
 Alpha  occ. eigenvalues --   -0.85280  -0.85007  -0.81928  -0.76799  -0.75890
 Alpha  occ. eigenvalues --   -0.75416  -0.75397  -0.74764  -0.74595  -0.74405
 Alpha  occ. eigenvalues --   -0.72309  -0.72001  -0.70293  -0.69011  -0.68212
 Alpha  occ. eigenvalues --   -0.65748  -0.65264  -0.65173  -0.64941  -0.64542
 Alpha  occ. eigenvalues --   -0.64524  -0.62676  -0.62126  -0.61074  -0.60186
 Alpha  occ. eigenvalues --   -0.59149  -0.58430  -0.57659  -0.57535  -0.57259
 Alpha  occ. eigenvalues --   -0.56934  -0.56634  -0.56505  -0.56108  -0.55969
 Alpha  occ. eigenvalues --   -0.55732  -0.55289  -0.54923  -0.54847  -0.54462
 Alpha  occ. eigenvalues --   -0.54383  -0.54049  -0.53365  -0.52994  -0.52542
 Alpha  occ. eigenvalues --   -0.52482  -0.52468  -0.51997  -0.51301  -0.51254
 Alpha  occ. eigenvalues --   -0.51137  -0.51126  -0.50557  -0.49466  -0.49103
 Alpha  occ. eigenvalues --   -0.48548  -0.47988  -0.47408  -0.47317  -0.46044
 Alpha  occ. eigenvalues --   -0.45766  -0.45145  -0.44923  -0.43751  -0.43716
 Alpha  occ. eigenvalues --   -0.43388  -0.42447  -0.41857  -0.41242  -0.40726
 Alpha  occ. eigenvalues --   -0.40365  -0.39659  -0.37837  -0.36581  -0.35653
 Alpha  occ. eigenvalues --   -0.35161  -0.33664  -0.33579  -0.33350  -0.33256
 Alpha  occ. eigenvalues --   -0.32218  -0.29676  -0.29549  -0.29260  -0.28005
 Alpha virt. eigenvalues --   -0.03077  -0.00631  -0.00228   0.00665   0.00885
 Alpha virt. eigenvalues --    0.01820   0.01972   0.02430   0.03948   0.04362
 Alpha virt. eigenvalues --    0.04411   0.06215   0.06763   0.06934   0.08994
 Alpha virt. eigenvalues --    0.09086   0.09314   0.09653   0.10278   0.10457
 Alpha virt. eigenvalues --    0.11513   0.12856   0.13150   0.13653   0.14140
 Alpha virt. eigenvalues --    0.14329   0.14515   0.15208   0.15301   0.15869
 Alpha virt. eigenvalues --    0.15969   0.16678   0.17421   0.17928   0.18748
 Alpha virt. eigenvalues --    0.18765   0.19435   0.19561   0.19970   0.20426
 Alpha virt. eigenvalues --    0.20692   0.21555   0.21948   0.22204   0.22551
 Alpha virt. eigenvalues --    0.22635   0.23076   0.23348   0.23566   0.24792
 Alpha virt. eigenvalues --    0.25805   0.26054   0.26284   0.27059   0.27628
 Alpha virt. eigenvalues --    0.28225   0.29140   0.29835   0.29951   0.30306
 Alpha virt. eigenvalues --    0.30590   0.31066   0.31322   0.31846   0.32137
 Alpha virt. eigenvalues --    0.32259   0.32386   0.32951   0.33572   0.33859
 Alpha virt. eigenvalues --    0.34153   0.34551   0.34960   0.35259   0.35505
 Alpha virt. eigenvalues --    0.35738   0.35878   0.36104   0.36534   0.36619
 Alpha virt. eigenvalues --    0.37667   0.37772   0.38514   0.38708   0.39174
 Alpha virt. eigenvalues --    0.39995   0.40345   0.41295   0.41495   0.42057
 Alpha virt. eigenvalues --    0.42080   0.42417   0.42830   0.44051   0.44126
 Alpha virt. eigenvalues --    0.44658   0.45436   0.45904   0.46657   0.47142
 Alpha virt. eigenvalues --    0.47612   0.47851   0.48131   0.48197   0.48662
 Alpha virt. eigenvalues --    0.49957   0.50343   0.50642   0.50981   0.51240
 Alpha virt. eigenvalues --    0.51387   0.51830   0.52338   0.52569   0.52720
 Alpha virt. eigenvalues --    0.52928   0.53258   0.53611   0.54217   0.54539
 Alpha virt. eigenvalues --    0.54714   0.54937   0.55107   0.55695   0.56045
 Alpha virt. eigenvalues --    0.56169   0.56611   0.57290   0.57440   0.57611
 Alpha virt. eigenvalues --    0.58117   0.58840   0.59166   0.60149   0.60187
 Alpha virt. eigenvalues --    0.60480   0.60535   0.61090   0.61530   0.61559
 Alpha virt. eigenvalues --    0.61655   0.63252   0.63679   0.64163   0.64797
 Alpha virt. eigenvalues --    0.64868   0.65512   0.65575   0.66391   0.66852
 Alpha virt. eigenvalues --    0.67113   0.67512   0.67782   0.67969   0.68593
 Alpha virt. eigenvalues --    0.68666   0.69960   0.70448   0.70464   0.70838
 Alpha virt. eigenvalues --    0.71288   0.71713   0.71841   0.71962   0.72436
 Alpha virt. eigenvalues --    0.72723   0.72906   0.73015   0.73391   0.73444
 Alpha virt. eigenvalues --    0.73851   0.74055   0.74406   0.74728   0.74774
 Alpha virt. eigenvalues --    0.75331   0.75492   0.75676   0.75864   0.76424
 Alpha virt. eigenvalues --    0.76803   0.77012   0.77094   0.77673   0.78345
 Alpha virt. eigenvalues --    0.78428   0.78798   0.79082   0.79464   0.79630
 Alpha virt. eigenvalues --    0.80318   0.80482   0.80641   0.81157   0.81565
 Alpha virt. eigenvalues --    0.81687   0.81747   0.82534   0.82829   0.83703
 Alpha virt. eigenvalues --    0.83884   0.83943   0.84179   0.84540   0.84953
 Alpha virt. eigenvalues --    0.85256   0.85468   0.85590   0.86366   0.86931
 Alpha virt. eigenvalues --    0.86980   0.87336   0.87583   0.87834   0.88092
 Alpha virt. eigenvalues --    0.88432   0.89180   0.89270   0.90106   0.90251
 Alpha virt. eigenvalues --    0.90399   0.91416   0.91566   0.91685   0.92314
 Alpha virt. eigenvalues --    0.93822   0.94112   0.94327   0.94616   0.95170
 Alpha virt. eigenvalues --    0.95550   0.95791   0.96401   0.96942   0.97915
 Alpha virt. eigenvalues --    0.98166   0.98770   0.99048   0.99928   1.01484
 Alpha virt. eigenvalues --    1.01650   1.02259   1.03322   1.04783   1.04870
 Alpha virt. eigenvalues --    1.06584   1.07487   1.08879   1.09256   1.09530
 Alpha virt. eigenvalues --    1.10998   1.11356   1.13140   1.13664   1.14650
 Alpha virt. eigenvalues --    1.14825   1.15071   1.15866   1.16047   1.16212
 Alpha virt. eigenvalues --    1.16943   1.17831   1.18103   1.20812   1.21676
 Alpha virt. eigenvalues --    1.22020   1.22397   1.22965   1.24407   1.24557
 Alpha virt. eigenvalues --    1.24944   1.25173   1.25643   1.26218   1.26293
 Alpha virt. eigenvalues --    1.27537   1.27950   1.28437   1.28485   1.29549
 Alpha virt. eigenvalues --    1.29717   1.30258   1.30696   1.30740   1.30904
 Alpha virt. eigenvalues --    1.31493   1.32315   1.33092   1.33685   1.33905
 Alpha virt. eigenvalues --    1.34208   1.34447   1.34786   1.35320   1.35558
 Alpha virt. eigenvalues --    1.35870   1.35896   1.36200   1.37548   1.37661
 Alpha virt. eigenvalues --    1.38223   1.38352   1.38527   1.40217   1.40707
[...]
 Alpha  occ. eigenvalues --   -0.85282  -0.85010  -0.81926  -0.76802  -0.75891
 Alpha  occ. eigenvalues --   -0.75416  -0.75396  -0.74764  -0.74595  -0.74405
 Alpha  occ. eigenvalues --   -0.72309  -0.72001  -0.70290  -0.69015  -0.68211
 Alpha  occ. eigenvalues --   -0.65748  -0.65265  -0.65173  -0.64939  -0.64543
 Alpha  occ. eigenvalues --   -0.64524  -0.62674  -0.62128  -0.61074  -0.60186
 Alpha  occ. eigenvalues --   -0.59149  -0.58430  -0.57660  -0.57535  -0.57259
 Alpha  occ. eigenvalues --   -0.56934  -0.56634  -0.56504  -0.56108  -0.55972
 Alpha  occ. eigenvalues --   -0.55729  -0.55289  -0.54923  -0.54846  -0.54461
 Alpha  occ. eigenvalues --   -0.54383  -0.54049  -0.53363  -0.52994  -0.52542
 Alpha  occ. eigenvalues --   -0.52476  -0.52468  -0.51995  -0.51303  -0.51258
 Alpha  occ. eigenvalues --   -0.51137  -0.51126  -0.50557  -0.49471  -0.49101
 Alpha  occ. eigenvalues --   -0.48549  -0.47983  -0.47404  -0.47319  -0.46044
 Alpha  occ. eigenvalues --   -0.45766  -0.45145  -0.44927  -0.43751  -0.43715
 Alpha  occ. eigenvalues --   -0.43387  -0.42444  -0.41856  -0.41243  -0.40729
 Alpha  occ. eigenvalues --   -0.40365  -0.39659  -0.37836  -0.36581  -0.35653
 Alpha  occ. eigenvalues --   -0.35160  -0.33663  -0.33579  -0.33355  -0.33256
 Alpha  occ. eigenvalues --   -0.32218  -0.29676  -0.29549  -0.29260  -0.28002
 Alpha virt. eigenvalues --   -0.03080  -0.00631  -0.00228   0.00665   0.00885
 Alpha virt. eigenvalues --    0.01822   0.01971   0.02433   0.03948   0.04362
 Alpha virt. eigenvalues --    0.04411   0.06214   0.06763   0.06932   0.08994
 Alpha virt. eigenvalues --    0.09086   0.09319   0.09653   0.10278   0.10457
 Alpha virt. eigenvalues --    0.11518   0.12856   0.13149   0.13653   0.14140
 Alpha virt. eigenvalues --    0.14328   0.14513   0.15205   0.15299   0.15869
 Alpha virt. eigenvalues --    0.15968   0.16678   0.17420   0.17928   0.18748
 Alpha virt. eigenvalues --    0.18765   0.19435   0.19561   0.19965   0.20426
 Alpha virt. eigenvalues --    0.20692   0.21555   0.21947   0.22204   0.22549
 Alpha virt. eigenvalues --    0.22633   0.23076   0.23348   0.23566   0.24794
 Alpha virt. eigenvalues --    0.25805   0.26055   0.26284   0.27058   0.27634
 Alpha virt. eigenvalues --    0.28225   0.29140   0.29837   0.29961   0.30306
 Alpha virt. eigenvalues --    0.30590   0.31066   0.31322   0.31845   0.32138
 Alpha virt. eigenvalues --    0.32256   0.32388   0.32952   0.33575   0.33859
 Alpha virt. eigenvalues --    0.34153   0.34551   0.34959   0.35259   0.35505
 Alpha virt. eigenvalues --    0.35741   0.35879   0.36108   0.36534   0.36623
 Alpha virt. eigenvalues --    0.37667   0.37774   0.38516   0.38708   0.39173
 Alpha virt. eigenvalues --    0.39991   0.40344   0.41294   0.41498   0.42061
 Alpha virt. eigenvalues --    0.42083   0.42416   0.42829   0.44054   0.44122
 Alpha virt. eigenvalues --    0.44659   0.45433   0.45902   0.46661   0.47140
 Alpha virt. eigenvalues --    0.47615   0.47851   0.48132   0.48198   0.48656
 Alpha virt. eigenvalues --    0.49956   0.50344   0.50641   0.50976   0.51237
 Alpha virt. eigenvalues --    0.51387   0.51830   0.52337   0.52572   0.52721
 Alpha virt. eigenvalues --    0.52929   0.53259   0.53615   0.54216   0.54538
 Alpha virt. eigenvalues --    0.54715   0.54939   0.55107   0.55694   0.56047
 Alpha virt. eigenvalues --    0.56171   0.56608   0.57291   0.57440   0.57612
 Alpha virt. eigenvalues --    0.58118   0.58841   0.59166   0.60149   0.60188
 Alpha virt. eigenvalues --    0.60481   0.60536   0.61089   0.61535   0.61562
 Alpha virt. eigenvalues --    0.61655   0.63252   0.63680   0.64162   0.64797
 Alpha virt. eigenvalues --    0.64873   0.65513   0.65574   0.66391   0.66852
 Alpha virt. eigenvalues --    0.67113   0.67513   0.67783   0.67970   0.68595
 Alpha virt. eigenvalues --    0.68665   0.69960   0.70448   0.70464   0.70837
 Alpha virt. eigenvalues --    0.71289   0.71714   0.71842   0.71962   0.72435
 Alpha virt. eigenvalues --    0.72724   0.72904   0.73015   0.73389   0.73444
 Alpha virt. eigenvalues --    0.73851   0.74054   0.74407   0.74727   0.74775
 Alpha virt. eigenvalues --    0.75332   0.75492   0.75676   0.75864   0.76424
 Alpha virt. eigenvalues --    0.76802   0.77010   0.77094   0.77678   0.78346
 Alpha virt. eigenvalues --    0.78428   0.78797   0.79082   0.79466   0.79632
 Alpha virt. eigenvalues --    0.80318   0.80483   0.80646   0.81157   0.81562
 Alpha virt. eigenvalues --    0.81687   0.81749   0.82534   0.82827   0.83706
 Alpha virt. eigenvalues --    0.83883   0.83944   0.84180   0.84541   0.84952
 Alpha virt. eigenvalues --    0.85263   0.85470   0.85591   0.86367   0.86932
 Alpha virt. eigenvalues --    0.86981   0.87335   0.87577   0.87832   0.88091
 Alpha virt. eigenvalues --    0.88432   0.89183   0.89271   0.90108   0.90253
 Alpha virt. eigenvalues --    0.90398   0.91416   0.91565   0.91687   0.92315
 Alpha virt. eigenvalues --    0.93827   0.94114   0.94330   0.94615   0.95171
 Alpha virt. eigenvalues --    0.95551   0.95790   0.96399   0.96946   0.97916
 Alpha virt. eigenvalues --    0.98165   0.98771   0.99050   0.99928   1.01482
 Alpha virt. eigenvalues --    1.01650   1.02258   1.03322   1.04783   1.04871
 Alpha virt. eigenvalues --    1.06583   1.07488   1.08881   1.09257   1.09531
 Alpha virt. eigenvalues --    1.10998   1.11360   1.13139   1.13665   1.14650
 Alpha virt. eigenvalues --    1.14825   1.15072   1.15866   1.16046   1.16213
 Alpha virt. eigenvalues --    1.16940   1.17831   1.18102   1.20812   1.21678
 Alpha virt. eigenvalues --    1.22020   1.22398   1.22964   1.24405   1.24560
 Alpha virt. eigenvalues --    1.24945   1.25173   1.25643   1.26220   1.26292
 Alpha virt. eigenvalues --    1.27538   1.27952   1.28438   1.28486   1.29549
 Alpha virt. eigenvalues --    1.29717   1.30258   1.30695   1.30740   1.30906
 Alpha virt. eigenvalues --    1.31493   1.32314   1.33090   1.33686   1.33904
 Alpha virt. eigenvalues --    1.34207   1.34448   1.34788   1.35320   1.35556
 Alpha virt. eigenvalues --    1.35871   1.35895   1.36200   1.37547   1.37660
 Alpha virt. eigenvalues --    1.38225   1.38353   1.38528   1.40218   1.40708
 Alpha virt. eigenvalues --    1.41967   1.42183   1.43184   1.43369   1.44536
 Alpha virt. eigenvalues --    1.45457   1.46746   1.48077   1.48174   1.49403
 Alpha virt. eigenvalues --    1.50470   1.54888   1.55604   1.55679   1.58905
 Alpha virt. eigenvalues --    1.59143   1.59884   1.62372   1.63632   1.64308
 Alpha virt. eigenvalues --    1.64908   1.65580   1.66560   1.67562   1.67773
 Alpha virt. eigenvalues --    1.68765   1.69730   1.70941   1.71704   1.72026
 Alpha virt. eigenvalues --    1.72840   1.73014   1.73268   1.73684   1.73808
 Alpha virt. eigenvalues --    1.74428   1.74744   1.75047   1.75485   1.76004
 Alpha virt. eigenvalues --    1.77225   1.77267   1.78099   1.78468   1.78660
 Alpha virt. eigenvalues --    1.78733   1.79398   1.79549   1.79942   1.80022
 Alpha virt. eigenvalues --    1.80389   1.80907   1.81462   1.81627   1.81806
 Alpha virt. eigenvalues --    1.81932   1.82091   1.82231   1.82643   1.82946
 Alpha virt. eigenvalues --    1.83415   1.84104   1.84305   1.84701   1.84876
 Alpha virt. eigenvalues --    1.85665   1.86103   1.86401   1.87097   1.87406
 Alpha virt. eigenvalues --    1.87653   1.87871   1.88295   1.89699   1.89768
 Alpha virt. eigenvalues --    1.90382   1.90389   1.91081   1.91254   1.91855
 Alpha virt. eigenvalues --    1.93364   1.94162   1.94322   1.95549   1.96079
 Alpha virt. eigenvalues --    1.96774   1.97089   1.97570   1.98314   1.99280
 Alpha virt. eigenvalues --    1.99392   2.00592   2.01152   2.01430   2.02199
 Alpha virt. eigenvalues --    2.02563   2.02834   2.03213   2.03860   2.04510
 Alpha virt. eigenvalues --    2.04822   2.04995   2.05423   2.05736   2.06133
 Alpha virt. eigenvalues --    2.06932   2.07932   2.09211   2.10066   2.10355
 Alpha virt. eigenvalues --    2.10928   2.11068   2.11844   2.12284   2.13927
 Alpha virt. eigenvalues --    2.14626   2.15518   2.15826   2.16622   2.16715
 Alpha virt. eigenvalues --    2.16847   2.17879   2.18165   2.18593   2.19590
 Alpha virt. eigenvalues --    2.20333   2.20568   2.20887   2.21319   2.21566
 Alpha virt. eigenvalues --    2.23279   2.23574   2.24380   2.24515   2.25804
 Alpha virt. eigenvalues --    2.26114   2.29375   2.29965   2.30739   2.31367
 Alpha virt. eigenvalues --    2.31476   2.31664   2.32814   2.33451   2.34421
 Alpha virt. eigenvalues --    2.34998   2.35843   2.36061   2.36676   2.37392
 Alpha virt. eigenvalues --    2.37635   2.37767   2.38132   2.38451   2.38837
 Alpha virt. eigenvalues --    2.39564   2.39699   2.41342   2.41779   2.42676
 Alpha virt. eigenvalues --    2.44094   2.45208   2.45230   2.46163   2.46721
 Alpha virt. eigenvalues --    2.47508   2.48027   2.49902   2.49971   2.50720
 Alpha virt. eigenvalues --    2.53628   2.54880   2.56233   2.57333   2.59230
 Alpha virt. eigenvalues --    2.60222   2.60991   2.61540   2.63768   2.64680
 Alpha virt. eigenvalues --    2.65771   2.65961   2.66728   2.67003   2.67570
 Alpha virt. eigenvalues --    2.67639   2.68236   2.69480   2.69821   2.69877
 Alpha virt. eigenvalues --    2.70036   2.70324   2.70409   2.70880   2.71112
 Alpha virt. eigenvalues --    2.72110   2.72446   2.72722   2.74325   2.74768
 Alpha virt. eigenvalues --    2.75738   2.77000   2.79231   2.79454   2.80058
 Alpha virt. eigenvalues --    2.80124   2.80337   2.80466   2.81809   2.82243
 Alpha virt. eigenvalues --    2.84526   2.85250   2.85778   2.86413   2.87058
 Alpha virt. eigenvalues --    2.87181   2.89627   2.91418   2.91873   2.94574
 Alpha virt. eigenvalues --    2.95896   2.97858   2.98451   2.99080   3.01357
 Alpha virt. eigenvalues --    3.02736   3.05012   3.05840   3.06159   3.07095
 Alpha virt. eigenvalues --    3.08637   3.09711   3.10251   3.11794   3.12512
 Alpha virt. eigenvalues --    3.15819   3.16231   3.19165   3.19722   3.20318
 Alpha virt. eigenvalues --    3.20723   3.20956   3.21892   3.22245   3.24163
 Alpha virt. eigenvalues --    3.24722   3.29755   3.29915   3.32662   3.32878
 Alpha virt. eigenvalues --    3.38116   3.39038   3.41613   3.45670   3.45952
 Alpha virt. eigenvalues --    3.47220   3.50735   3.52353   3.55487   3.58476
 Alpha virt. eigenvalues --    3.60568   3.62394   3.63151   3.63233   3.63514
 Alpha virt. eigenvalues --    3.63826   3.65782   3.66479   3.71970   3.72712
 Alpha virt. eigenvalues --    3.75731   3.75935   3.76575   3.78847   3.79450
 Alpha virt. eigenvalues --    3.82130   3.85097   3.92417   3.95062   4.02492
 Alpha virt. eigenvalues --    4.08528
 Electronic spatial extent (au):  <R**2>=          25433.3711
 Charge=             -0.0000 electrons
 Dipole moment (field-independent basis, Debye):
    X=             19.7656    Y=             14.4254    Z=              0.2464  Tot=             24.4710
 Quadrupole moment (field-independent basis, Debye-Ang):
   XX=           -308.1982   YY=           -250.2933   ZZ=           -219.8998
   XY=            -55.8835   XZ=             -1.6713   YZ=             -1.4343
 Traceless Quadrupole moment (field-independent basis, Debye-Ang):
   XX=            -48.7344   YY=              9.1704   ZZ=             39.5640
   XY=            -55.8835   XZ=             -1.6713   YZ=             -1.4343
 Octapole moment (field-independent basis, Debye-Ang**2):
  XXX=            512.5000  YYY=            116.1055  ZZZ=              2.0169  XYY=           -130.6861
  XXY=            290.7025  XXZ=             12.2746  XZZ=             49.7383  YZZ=             10.7618
  YYZ=             -2.9589  XYZ=            -10.4925
 Hexadecapole moment (field-independent basis, Debye-Ang**3):
 XXXX=         -19177.0834 YYYY=          -7166.2255 ZZZZ=          -5534.0846 XXXY=          -1221.8479
 XXXZ=            -63.9385 YYYX=           -623.4051 YYYZ=             13.5600 ZZZX=             12.1121
 ZZZY=            -32.1332 XXYY=          -4544.7278 XXZZ=          -3815.4400 YYZZ=          -2544.3297
 XXYZ=             17.9303 YYXZ=            -30.3895 ZZXY=            133.4633
 N-N= 5.860141418611D+03 E-N=-2.454768458006D+04  KE= 5.399270341149D+03
 D1PCM: PCM CHGder 1st derivatives, ID1Alg=3 FixD1E=F DoIter=F DoCFld=F I1PDM=0.
 Calling FoFJK, ICntrl=      2127 FMM=T ISym2X=0 I1Cent= 0 IOpClX= 0 NMat=1 NMatS=1 NMatT=0.
 -------------------------------------------------------------------
 Center     Atomic                   Forces (Hartrees/Bohr)
 Number     Number              X              Y              Z
 -------------------------------------------------------------------
      1       25          -0.000069338   -0.000052148    0.000093131
      2        6           0.000022130   -0.000027557   -0.000009623
      3        8          -0.000005380    0.000010481    0.000001448
      4        6           0.000017234   -0.000074176   -0.000028767
      5        8           0.000006472   -0.000009848    0.000002832
      6        6           0.000002530   -0.000038308   -0.000036161
      7        7          -0.000124279    0.000016309   -0.000080404
      8        6          -0.000008929   -0.000051756    0.000035715
      9        6           0.000002546    0.000004812    0.000017341
     10        6           0.000035972   -0.000002233   -0.000014099
     11        1          -0.000015406    0.000020589   -0.000017850
     12        1           0.000000759    0.000002499   -0.000000649
     13        7           0.000207881    0.000076055   -0.000057301
     14        6          -0.000094188    0.000023503    0.000102295
     15        6          -0.000048508   -0.000009374   -0.000038535
     16        6          -0.000035943    0.000003276   -0.000015635
     17        6          -0.000006393   -0.000016370    0.000001494
     18        6          -0.000182873    0.000091232    0.000097571
     19        1           0.000004427   -0.000014523   -0.000004685
     20        1           0.000230902   -0.000085177   -0.000099877
     21        7          -0.000047093    0.000025322   -0.000002848
     22        6           0.000000924   -0.000029679   -0.000011834
     23        6           0.000001899    0.000010915   -0.000007134
     24        1          -0.000045329   -0.000015092    0.000039954
     25        6          -0.000004702   -0.000013833   -0.000008680
     26        1          -0.000005333   -0.000008047   -0.000001767
     27        6           0.000029611    0.000015135    0.000005328
     28        1           0.000008142   -0.000003944   -0.000008686
     29        1          -0.000005977   -0.000000782    0.000001654
     30        8           0.000003303    0.000020363    0.000013498
     31        6           0.000041917    0.000000552    0.000165206
     32        6           0.000020059    0.000019984    0.000014180
     33        6           0.000012893    0.000024053    0.000022763
     34        6           0.000024590    0.000012769   -0.000015556
     35        6          -0.000023159    0.000006662   -0.000011465
     36        6           0.000014240    0.000006354    0.000001380
     37        6           0.000010148    0.000005096    0.000009078
     38        6           0.000007273    0.000001732   -0.000006333
     39        6          -0.000045748    0.000022233   -0.000065406
     40        1          -0.000000422    0.000002441    0.000002130
     41        1           0.000004385    0.000004865    0.000003682
     42        1           0.000003324    0.000005494   -0.000002157
     43        6          -0.000030327   -0.000009300   -0.000043564
     44        6           0.000071658    0.000009592   -0.000066374
     45        6          -0.000393556   -0.000002318   -0.000200065
     46        6           0.001258009    0.000061571    0.000014731
     47        6          -0.000563463   -0.000031072   -0.000051625
     48        6          -0.000053281    0.000003361    0.000096943
     49        1          -0.000021168    0.000004226   -0.000052868
     50        1          -0.000242111   -0.000003405    0.000233484
     51        1          -0.000021096    0.000004547    0.000004015
     52        6           0.000005094   -0.000010647   -0.000012388
     53        1           0.000000874    0.000002776   -0.000003883
     54        6          -0.000002670   -0.000022700   -0.000002966
     55        1           0.000003212    0.000000848   -0.000006270
     56        1          -0.000002583    0.000003343    0.000002948
     57        6          -0.000004167   -0.000006191    0.000003667
     58        6           0.000001080    0.000011231    0.000000563
     59        1          -0.000003388   -0.000008615    0.000001627
     60        1          -0.000005118   -0.000007503   -0.000001921
     61       35           0.000002570    0.000024894    0.000010425
     62        1           0.000050828    0.000003186   -0.000021777
     63        1           0.000005043   -0.000007704    0.000010068
 -------------------------------------------------------------------
 Cartesian Forces:  Max     0.001258009 RMS     0.000116308
 NDeriv=    189 NFrqRd=  0 NDerD0=      0 MskFDP=       0 MskDFD=       0 MskDF0=       0
 Re-enter D2Numr:  atom  46 IXYZ=1 step-down number 1
 Basis read from rwf:  (5D, 7F)
   751 basis functions,  1339 primitive gaussians,   802 cartesian basis functions
   165 alpha electrons      165 beta electrons
       nuclear repulsion energy      5860.1833728215 Hartrees.
 NAtoms=   63 NActive=   63 NUniq=   63 SFac= 1.00D+00 NAtFMM=   60 NAOKFM=T Big=T
 Integral buffers will be    131072 words long.
 Raffenetti 2 integral format.
 Two-electron integral symmetry is turned off.
 Nuclear repulsion after empirical dispersion term =     5860.1203038767 Hartrees.
 ------------------------------------------------------------------------------
 Polarizable Continuum Model (PCM)
 =================================
 Model                : PCM.
 Atomic radii         : UFF (Universal Force Field).
 Polarization charges : Total charges.
 Charge compensation  : None.
 Solution method      : On-the-fly selection.
 Cavity type          : Scaled VdW (van der Waals Surface) (Alpha=1.100).
 Cavity algorithm     : GePol (No added spheres)
                        Default sphere list used, NSphG=   63.
                        Lebedev-Laikov grids with approx.  5.0 points / Ang**2.
                        Smoothing algorithm: York/Karplus (Gamma=1.0000).
                        Polarization charges: spherical gaussians, with
                                              point-specific exponents (IZeta= 3).
                        Self-potential: point-specific (ISelfS= 7).
                        Self-field    : sphere-specific E.n sum rule (ISelfD= 2).
 1st derivatives      : Analytical E(r).r(x)/FMM algorithm (CHGder, D1EAlg=3).
                        Cavity 1st derivative terms included.
 Solvent              : TetraHydroFuran, Eps=   7.425700 Eps(inf)=   1.974025
 ------------------------------------------------------------------------------
 One-electron integrals computed using PRISM.
 NBasis=   751 RedAO= T EigKep=  2.24D-04  NBF=   751
 NBsUse=   751 1.00D-06 EigRej= -1.00D+00 NBFU=   751
 Initial guess from the checkpoint file:  "checkpoint.chk"
 B after Tr=     0.000000    0.000034   -0.000000
         Rot=    1.000000   -0.000004   -0.000000   -0.000003 Ang=  -0.00 deg.
 Requested convergence on RMS density matrix=1.00D-08 within 128 cycles.
 Requested convergence on MAX density matrix=1.00D-06.
 Requested convergence on             energy=1.00D-06.
 No special actions if energy rises.
 Inv3:  Mode=1 IEnd=    73923888.
 Iteration    1 A*A^-1 deviation from unit magnitude is 3.33D-15 for   1119.
 Iteration    1 A*A^-1 deviation from orthogonality  is 2.44D-15 for   3531    639.
 Iteration    1 A^-1*A deviation from unit magnitude is 3.11D-15 for    542.
 Iteration    1 A^-1*A deviation from orthogonality  is 3.55D-15 for   3141    455.
