 Entering Gaussian System, Link 0=g16
 Initial command:
 /home1/apps/gaussian/16rA.03/g16/l1.exe "/tmp/Gau-218639.inp" -scrdir="/tmp/"
 Entering Link 1 = /home1/apps/gaussian/16rA.03/g16/l1.exe PID=    218641.
  
 Copyright (c) 1988,1990,1992,1993,1995,1998,2003,2009,2016,
            Gaussian, Inc.  All Rights Reserved.
  
 This is part of the Gaussian(R) 16 program.  It is based on
 the Gaussian(R) 09 system (copyright 2009, Gaussian, Inc.),
 the Gaussian(R) 03 system (copyright 2003, Gaussian, Inc.),
 the Gaussian(R) 98 system (copyright 1998, Gaussian, Inc.),
 the Gaussian(R) 94 system (copyright 1995, Gaussian, Inc.),
 the Gaussian 92(TM) system (copyright 1992, Gaussian, Inc.),
 the Gaussian 90(TM) system (copyright 1990, Gaussian, Inc.),
 the Gaussian 88(TM) system (copyright 1988, Gaussian, Inc.),
 the Gaussian 86(TM) system (copyright 1986, Carnegie Mellon
 University), and the Gaussian 82(TM) system (copyright 1983,
 Carnegie Mellon University). Gaussian is a federally registered
 trademark of Gaussian, Inc.
  
 This software contains proprietary and confidential information,
 including trade secrets, belonging to Gaussian, Inc.
  
 This software is provided under written license and may be
 used, copied, transmitted, or stored only in accord with that
 written license.
  
 The following legend is applicable only to US Government
 contracts under FAR:
  
                    RESTRICTED RIGHTS LEGEND
  
 Use, reproduction and disclosure by the US Government is
 subject to restrictions as set forth in subparagraphs (a)
 and (c) of the Commercial Computer Software - Restricted
 Rights clause in FAR 52.227-19.
  
 Gaussian, Inc.
 340 Quinnipiac St., Bldg. 40, Wallingford CT 06492
  
  
 ---------------------------------------------------------------
 Warning -- This program may not be used in any manner that
 competes with the business of Gaussian, Inc. or will provide
 assistance to any competitor of Gaussian, Inc.  The licensee
 of this program is prohibited from giving any competitor of
 Gaussian, Inc. access to this program.  By using this program,
 the user acknowledges that Gaussian, Inc. is engaged in the
 business of creating and licensing software in the field of
 computational chemistry and represents and warrants to the
 licensee that it is not a competitor of Gaussian, Inc. and that
 it will not use this program in any manner prohibited above.
 ---------------------------------------------------------------
  

 Cite this work as:
 Gaussian 16, Revision A.03,
 M. J. Frisch, G. W. Trucks, H. B. Schlegel, G. E. Scuseria, 
 M. A. Robb, J. R. Cheeseman, G. Scalmani, V. Barone, 
 G. A. Petersson, H. Nakatsuji, X. Li, M. Caricato, A. V. Marenich, 
 J. Bloino, B. G. Janesko, R. Gomperts, B. Mennucci, H. P. Hratchian, 
 J. V. Ortiz, A. F. Izmaylov, J. L. Sonnenberg, D. Williams-Young, 
 F. Ding, F. Lipparini, F. Egidi, J. Goings, B. Peng, A. Petrone, 
 T. Henderson, D. Ranasinghe, V. G. Zakrzewski, J. Gao, N. Rega, 
 G. Zheng, W. Liang, M. Hada, M. Ehara, K. Toyota, R. Fukuda, 
 J. Hasegawa, M. Ishida, T. Nakajima, Y. Honda, O. Kitao, H. Nakai, 
 T. Vreven, K. Throssell, J. A. Montgomery, Jr., J. E. Peralta, 
 F. Ogliaro, M. J. Bearpark, J. J. Heyd, E. N. Brothers, K. N. Kudin, 
 V. N. Staroverov, T. A. Keith, R. Kobayashi, J. Normand, 
 K. Raghavachari, A. P. Rendell, J. C. Burant, S. S. Iyengar, 
 J. Tomasi, M. Cossi, J. M. Millam, M. Klene, C. Adamo, R. Cammi, 
 J. W. Ochterski, R. L. Martin, K. Morokuma, O. Farkas, 
 J. B. Foresman, and D. J. Fox, Gaussian, Inc., Wallingford CT, 2016.
 
 ******************************************
 Gaussian 16:  ES64L-G16RevA.03 25-Dec-2016
                22-Oct-2022 
 ******************************************
 %Chk=checkpoint.chk
 %NProcShared=12
 Will use up to   12 processors via shared memory.
 ------------------------------------------------------
 # wB97XD Gen Opt=(QST2) SCRF=(Solvent=TetraHydroFuran)
 ------------------------------------------------------
 1/5=1,18=20,26=3,27=202,38=1/1,3;
 2/9=110,12=2,17=6,18=5,40=1/2;
 3/5=7,11=2,25=1,30=1,70=2201,71=1,72=20,74=-58/1,2,3;
 4//1;
 5/5=2,38=5,53=20/2;
 6/7=2,8=2,9=2,10=2,28=1/1;
 7//1,2,3,16;
 1/5=1,18=20,26=3,27=202/3(2);
 2/9=110/2;
 99//99;
 2/9=110/2;
 3/5=7,6=1,11=2,25=1,30=1,70=2205,71=1,72=20,74=-58,82=7/1,2,3;
 4/5=5,16=3,69=1/1;
 5/5=2,38=5,53=20/2;
 7//1,2,3,16;
 1/5=1,18=20,26=3,27=202/3(-5);
 2/9=110/2;
 6/7=2,8=2,9=2,10=2,19=2,28=1/1;
 99/9=1/99;
 ----------------------------
 Mn Transition State Reactant
 ----------------------------
 Symbolic Z-matrix:
 Charge =  0 Multiplicity = 1
 Mn                    0.        0.        0. 
 C                    -0.09679   1.8323    0.02295 
 C                     0.        0.       -1.82342 
 C                     1.83282   0.       -0.02938 
 Br                    2.3094    2.3094    2.3094 
 N                    -0.04922  -2.15482   0.09332 
 N                    -2.15153  -0.14036   0.09515 
 C                     0.52385  -2.93988  -0.8355 
 C                     0.57609  -4.32182  -0.71618 
 C                     0.03787  -4.93262   0.41495 
 C                    -0.56724  -4.13205   1.38331 
 C                    -0.59422  -2.75751   1.15179 
 C                    -2.76019  -0.33999   1.26803 
 C                    -4.08404  -0.75052   1.40528 
 C                    -2.90821  -0.24504  -1.01025 
 C                    -4.25761  -0.57119  -0.97276 
 C                    -4.8572   -0.85573   0.2508 
 C                    -4.54612  -1.14763   2.76568 
 C                    -1.06072  -4.64508   2.69242 
 C                    -2.36035  -4.39435   3.17469 
 C                    -4.2951   -2.45577   3.22064 
 C                    -2.7088   -4.77698   4.4776 
 C                    -4.6235   -2.81682   4.53378 
 C                    -5.16246  -0.23395   3.6234 
 C                    -0.16193  -5.33835   3.51187 
 C                    -0.5204   -5.73496   4.79711 
 C                    -5.49479  -0.60032   4.92642 
 C                    -5.20842  -1.88092   5.39075 
 C                    -1.78362  -5.43139   5.29359 
 S                    -3.59561  -3.66717   2.11779 
 S                    -4.34059  -4.47249   5.11215 
 H                     1.05087  -4.91025  -1.50139 
 H                     0.08951  -6.01597   0.54182 
 H                    -1.07315  -2.12266   1.89001 
 H                    -2.16282  -0.19695   2.1652 
 H                    -2.4226   -0.06909  -1.96947 
 H                    -4.81913  -0.6322   -1.90505 
 H                    -5.90099  -1.1706    0.30616 
 H                    -5.36522   0.7782    3.26819 
 H                     0.84657  -5.53732   3.14359 
 H                     0.19986  -6.26023   5.42631 
 H                    -5.96589   0.12432   5.59251 
 H                    -5.4428   -2.16193   6.41931 
 H                    -2.05931  -5.70427   6.31399 
 O                     0.06255   0.01915  -2.96537 
 O                     2.97377  -0.00521  -0.04518 
 O                    -0.17883   2.9698    0.0391 
 H                     0.9665   -2.44597  -1.70172 
 N                     0.1205   -0.06435   2.03055 
 C                     0.1757   -0.32041   3.1556 
 C                     0.0988   -0.78664   4.50696 
 C                     1.18058  -0.65782   5.389 
 C                    -1.08395  -1.43608   4.90265 
 C                     1.07101  -1.1882    6.67028 
 H                     2.09302  -0.15307   5.06933 
 C                    -1.1749   -1.96428   6.18414 
 H                    -1.92637  -1.52866   4.21411 
 C                    -0.09853  -1.84109   7.06447 
 H                     1.90634  -1.09472   7.36578 
 H                    -2.08869  -2.47607   6.49182 
 H                    -0.17211  -2.25847   8.07044 
 
 Add virtual bond connecting atoms C2         and Br5        Dist= 6.34D+00.
 Add virtual bond connecting atoms C4         and Br5        Dist= 6.28D+00.
 Add virtual bond connecting atoms O46        and Br5        Dist= 6.36D+00.
 Add virtual bond connecting atoms N49        and Br5        Dist= 6.12D+00.
 ---------------------------
 Mn Transition State Product
 ---------------------------
 Symbolic Z-matrix:
 Charge =  0 Multiplicity = 1
 Mn                    0.        0.        0. 
 C                    -0.08831   1.81915   0.02694 
 C                     0.        0.       -1.79318 
 C                     1.82129   0.        0.02701 
 Br                    0.21406   0.22525   2.60296 
 N                    -0.00198  -2.15626   0.10267 
 N                    -2.15359  -0.10666   0.10261 
 C                     0.38734  -2.90055  -0.94769 
 C                     0.33894  -4.28645  -0.94857 
 C                    -0.15783  -4.94905   0.17197 
 C                    -0.57167  -4.19114   1.26468 
 C                    -0.44573  -2.80197   1.18369 
 C                    -2.77703  -0.58203   1.18326 
 C                    -4.15855  -0.77451   1.26439 
 C                    -2.91591   0.24739  -0.9473 
 C                    -4.29788   0.13244  -0.94805 
 C                    -4.93564  -0.39652   0.17216 
 C                    -4.73565  -1.36773   2.50277 
 C                    -1.13591  -4.79615   2.50328 
 C                    -2.48294  -4.59586   2.85783 
 C                    -4.47     -2.70335   2.85753 
 C                    -2.9782   -5.11928   4.05963 
 C                    -4.96894  -3.2234    4.05928 
 C                    -5.54655  -0.59398   3.33896 
 C                    -0.32361  -5.56806   3.33979 
 C                    -0.82204  -6.0942    4.52932 
 C                    -6.04809  -1.11734   4.52841 
 C                    -5.74193  -2.42245   4.90321 
 C                    -2.14059  -5.85203   4.90386 
 S                    -3.58496  -3.76369   1.73597 
 S                    -4.6875   -4.9209    4.50034 
 H                     0.67663  -4.83606  -1.82736 
 H                    -0.23113  -6.03846   0.19274 
 H                    -0.69729  -2.18819   2.04804 
 H                    -2.15175  -0.80469   2.04727 
 H                    -2.4021    0.64317  -1.82367 
 H                    -4.86325   0.44411  -1.82647 
 H                    -6.02029  -0.52198   0.19305 
 H                    -5.76345   0.43908   3.05961 
 H                     0.71885  -5.73439   3.0606 
 H                    -0.17222  -6.6814    5.18043 
 H                    -6.66649  -0.49688   5.17925 
 H                    -6.10842  -2.82852   5.84804 
 H                    -2.52842  -6.23768   5.84873 
 O                     0.04791   0.05036  -2.9414 
 O                     2.96474  -0.00968   0.05082 
 O                    -0.15349   2.9608    0.05043 
 H                     0.75715  -2.36822  -1.82434 
 N                    -1.50756  -1.50756   4.52267 
 C                    -1.19425  -1.19425   5.59238 
 C                    -0.80436  -0.80515   6.92204 
 C                     0.2448   -1.47782   7.56559 
 C                    -1.47697   0.24438   7.56563 
 C                     0.61627  -1.09627   8.85136 
 H                     0.76207  -2.29301   7.05717 
 C                    -1.09552   0.61576   8.85125 
 H                    -2.29195   0.76156   7.05678 
 C                    -0.05164  -0.05237   9.49298 
 H                     1.43223  -1.61737   9.35518 
 H                    -1.61642   1.43178   9.35519 
 H                     0.2437    0.24294   10.50184 
 
 Add virtual bond connecting atoms N49        and H34        Dist= 5.09D+00.
 Add virtual bond connecting atoms N49        and H35        Dist= 5.01D+00.
 Iteration  1 RMS(Cart)=  0.20973667 RMS(Int)=  0.71619771
 Iteration  2 RMS(Cart)=  0.08944684 RMS(Int)=  0.70424817
 Iteration  3 RMS(Cart)=  0.09640219 RMS(Int)=  0.69571637
 Iteration  4 RMS(Cart)=  0.11794759 RMS(Int)=  0.68544041
 Iteration  5 RMS(Cart)=  0.08301138 RMS(Int)=  0.67898909
 Iteration  6 RMS(Cart)=  0.07732468 RMS(Int)=  0.67524904
 Iteration  7 RMS(Cart)=  0.06527734 RMS(Int)=  0.67337677
 Iteration  8 RMS(Cart)=  0.03370951 RMS(Int)=  0.67231621
 Iteration  9 RMS(Cart)=  0.02327778 RMS(Int)=  0.67162837
 Iteration 10 RMS(Cart)=  0.01974597 RMS(Int)=  0.67129712
 Iteration 11 RMS(Cart)=  0.02117516 RMS(Int)=  0.67124581
 Iteration 12 RMS(Cart)=  0.02255858 RMS(Int)=  0.67142720
 Iteration 13 RMS(Cart)=  0.01327028 RMS(Int)=  0.67185203
 Iteration 14 RMS(Cart)=  0.01080994 RMS(Int)=  0.67244768
 Iteration 15 RMS(Cart)=  0.01082098 RMS(Int)=  0.67317586
 Iteration 16 RMS(Cart)=  0.01070546 RMS(Int)=  0.67401468
 Iteration 17 RMS(Cart)=  0.00945240 RMS(Int)=  0.67482238
 Iteration 18 RMS(Cart)=  0.01059117 RMS(Int)=  0.67559398
 Iteration 19 RMS(Cart)=  0.01073625 RMS(Int)=  0.67638961
 Iteration 20 RMS(Cart)=  0.01089661 RMS(Int)=  0.67719333
 Iteration 21 RMS(Cart)=  0.01050978 RMS(Int)=  0.67790893
 Iteration 22 RMS(Cart)=  0.00888128 RMS(Int)=  0.67853875
 Iteration 23 RMS(Cart)=  0.00799273 RMS(Int)=  0.67910294
 Iteration 24 RMS(Cart)=  0.00728324 RMS(Int)=  0.67961181
 Iteration 25 RMS(Cart)=  0.00626189 RMS(Int)=  0.68004882
 Iteration 26 RMS(Cart)=  0.00541401 RMS(Int)=  0.68042792
 Iteration 27 RMS(Cart)=  0.00472683 RMS(Int)=  0.68075793
 Iteration 28 RMS(Cart)=  0.00414052 RMS(Int)=  0.68104518
 Iteration 29 RMS(Cart)=  0.00363056 RMS(Int)=  0.68129357
 Iteration 30 RMS(Cart)=  0.00318252 RMS(Int)=  0.68150689
 Iteration 31 RMS(Cart)=  0.00278537 RMS(Int)=  0.68168906
 Iteration 32 RMS(Cart)=  0.00243456 RMS(Int)=  0.68184373
 Iteration 33 RMS(Cart)=  0.00212580 RMS(Int)=  0.68197420
 Iteration 34 RMS(Cart)=  0.00185485 RMS(Int)=  0.68208345
 Iteration 35 RMS(Cart)=  0.00161765 RMS(Int)=  0.68217419
 Iteration 36 RMS(Cart)=  0.00141036 RMS(Int)=  0.68224880
 Iteration 37 RMS(Cart)=  0.00122948 RMS(Int)=  0.68230943
 Iteration 38 RMS(Cart)=  0.00107182 RMS(Int)=  0.68235798
 Iteration 39 RMS(Cart)=  0.00093454 RMS(Int)=  0.68239612
 Iteration 40 RMS(Cart)=  0.00081512 RMS(Int)=  0.68242533
 Iteration 41 RMS(Cart)=  0.00071131 RMS(Int)=  0.68244689
 Iteration 42 RMS(Cart)=  0.00062115 RMS(Int)=  0.68246193
 Iteration 43 RMS(Cart)=  0.00054290 RMS(Int)=  0.68247143
 Iteration 44 RMS(Cart)=  0.00047505 RMS(Int)=  0.68247623
 Iteration 45 RMS(Cart)=  0.00041628 RMS(Int)=  0.68247708
 Iteration 46 RMS(Cart)=  0.00036541 RMS(Int)=  0.68247461
 Iteration 47 RMS(Cart)=  0.00032146 RMS(Int)=  0.68246936
 Iteration 48 RMS(Cart)=  0.00028352 RMS(Int)=  0.68246181
 Iteration 49 RMS(Cart)=  0.00025084 RMS(Int)=  0.68245237
 Iteration 50 RMS(Cart)=  0.00022275 RMS(Int)=  0.68244137
 Iteration 51 RMS(Cart)=  0.00019866 RMS(Int)=  0.68242912
 Iteration 52 RMS(Cart)=  0.00017805 RMS(Int)=  0.68241587
 Iteration 53 RMS(Cart)=  0.00016047 RMS(Int)=  0.68240183
 Iteration 54 RMS(Cart)=  0.00014552 RMS(Int)=  0.68238718
 Iteration 55 RMS(Cart)=  0.00013284 RMS(Int)=  0.68237209
 Iteration 56 RMS(Cart)=  0.00012211 RMS(Int)=  0.68235667
 Iteration 57 RMS(Cart)=  0.00011306 RMS(Int)=  0.68234105
 Iteration 58 RMS(Cart)=  0.00010541 RMS(Int)=  0.68232532
 Iteration 59 RMS(Cart)=  0.00009895 RMS(Int)=  0.68230954
 Iteration 60 RMS(Cart)=  0.00009349 RMS(Int)=  0.68229380
 Iteration 61 RMS(Cart)=  0.00008884 RMS(Int)=  0.68227813
 Iteration 62 RMS(Cart)=  0.00008486 RMS(Int)=  0.68226260
 Iteration 63 RMS(Cart)=  0.00008143 RMS(Int)=  0.68224722
 Iteration 64 RMS(Cart)=  0.00007844 RMS(Int)=  0.68223204
 Iteration 65 RMS(Cart)=  0.00007581 RMS(Int)=  0.68221708
 Iteration 66 RMS(Cart)=  0.00007346 RMS(Int)=  0.68220235
 Iteration 67 RMS(Cart)=  0.00007134 RMS(Int)=  0.68218787
 Iteration 68 RMS(Cart)=  0.00006940 RMS(Int)=  0.68217366
 Iteration 69 RMS(Cart)=  0.00006760 RMS(Int)=  0.68215972
 Iteration 70 RMS(Cart)=  0.00006592 RMS(Int)=  0.68214605
 Iteration 71 RMS(Cart)=  0.00006434 RMS(Int)=  0.68213267
 Iteration 72 RMS(Cart)=  0.00006283 RMS(Int)=  0.68211958
 Iteration 73 RMS(Cart)=  0.00006138 RMS(Int)=  0.68210676
 Iteration 74 RMS(Cart)=  0.00006005 RMS(Int)=  0.68209421
 Iteration 75 RMS(Cart)=  0.00005887 RMS(Int)=  0.68208186
 Iteration 76 RMS(Cart)=  0.00005769 RMS(Int)=  0.68206973
 Iteration 77 RMS(Cart)=  0.00005651 RMS(Int)=  0.68205780
 Iteration 78 RMS(Cart)=  0.00005534 RMS(Int)=  0.68204608
 Iteration 79 RMS(Cart)=  0.00005417 RMS(Int)=  0.68203457
 Iteration 80 RMS(Cart)=  0.00005302 RMS(Int)=  0.68202327
 Iteration 81 RMS(Cart)=  0.00005187 RMS(Int)=  0.68201219
 Iteration 82 RMS(Cart)=  0.00005073 RMS(Int)=  0.68200132
 Iteration 83 RMS(Cart)=  0.00004961 RMS(Int)=  0.68199066
 Iteration 84 RMS(Cart)=  0.00004850 RMS(Int)=  0.68198021
 Iteration 85 RMS(Cart)=  0.00004740 RMS(Int)=  0.68196998
 Iteration 86 RMS(Cart)=  0.00004632 RMS(Int)=  0.68195996
 Iteration 87 RMS(Cart)=  0.00004526 RMS(Int)=  0.68195014
 Iteration 88 RMS(Cart)=  0.00004421 RMS(Int)=  0.68194053
 Iteration 89 RMS(Cart)=  0.00004318 RMS(Int)=  0.68193113
 Iteration 90 RMS(Cart)=  0.00004218 RMS(Int)=  0.68192192
 Iteration 91 RMS(Cart)=  0.00004118 RMS(Int)=  0.68191292
 Iteration 92 RMS(Cart)=  0.00004021 RMS(Int)=  0.68190411
 Iteration 93 RMS(Cart)=  0.00003926 RMS(Int)=  0.68189549
 Iteration 94 RMS(Cart)=  0.00003833 RMS(Int)=  0.68188640
 Iteration 95 RMS(Cart)=  0.01526234 RMS(Int)=  0.68000260
 Iteration 96 RMS(Cart)=  0.01113182 RMS(Int)=  0.67814695
 Iteration 97 RMS(Cart)=  0.00873018 RMS(Int)=  0.67622808
 Iteration 98 RMS(Cart)=  0.00799190 RMS(Int)=  0.67431714
 Iteration 99 RMS(Cart)=  0.00759947 RMS(Int)=  0.67246630
 Iteration100 RMS(Cart)=  0.00729669 RMS(Int)=  0.67071092
 New curvilinear step not converged.
 FormGI is forming the generalized inverse of G from B-inverse, IUseBI=4.
 RedQX1 iteration     1 Try  1 RMS(Cart)=  0.36990750 RMS(Int)=  0.69339466 XScale=  8.61392752
 RedQX1 iteration     1 Try  2 RMS(Cart)=  0.37426696 RMS(Int)=  0.66095059 XScale=  4.25030074
 RedQX1 iteration     1 Try  3 RMS(Cart)=  0.40073072 RMS(Int)=  0.64453713 XScale=  2.76400847
 RedQX1 iteration     1 Try  4 RMS(Cart)=  0.48946597 RMS(Int)=  0.64563292 XScale=  1.97871750
 RedQX1 iteration     1 Try  5 RMS(Cart)=  0.81240497 RMS(Int)=  0.67640211 XScale=  1.40325435
 RedQX1 iteration     1 Try  6 RMS(Cart)=  0.69002292 RMS(Int)=  0.69697862 XScale=  1.18335920
 RedQX1 iteration     2 Try  1 RMS(Cart)=  0.13793480 RMS(Int)=  0.69485172 XScale=  1.16524626
 RedQX1 iteration     2 Try  2 RMS(Cart)=  0.17433138 RMS(Int)=  0.69873763 XScale=  1.12934597
 RedQX1 iteration     2 Try  3 RMS(Cart)=  0.28731659 RMS(Int)=  0.80031304 XScale=  1.03157971
 RedQX1 iteration     2 Try  4 RMS(Cart)=  0.76714848 RMS(Int)=  0.79977245 XScale=  0.93565926
 RedQX1 iteration     3 Try  1 RMS(Cart)=  0.30685939 RMS(Int)=  0.73846696 XScale=  1.02278024
 RedQX1 iteration     3 Try  2 RMS(Cart)=  0.20455186 RMS(Int)=  0.79025982 XScale=  0.98569872
 RedQX1 iteration     4 Try  1 RMS(Cart)=  0.16364149 RMS(Int)=  0.78803817 XScale=  0.99138223
 RedQX1 iteration     5 Try  1 RMS(Cart)=  0.03272830 RMS(Int)=  0.74972976 XScale=  1.00244548
 RedQX1 iteration     5 Try  2 RMS(Cart)=  0.03551844 RMS(Int)=  0.81291741 XScale=  0.99508473
 RedQX1 iteration     6 Try  1 RMS(Cart)=  0.03409770 RMS(Int)=  0.81286367 XScale=  0.99537198
 RedQX1 iteration     7 Try  1 RMS(Cart)=  0.00681954 RMS(Int)=  0.81264716 XScale=  0.99979347
 RedQX1 iteration     7 Try  2 RMS(Cart)=  0.00991139 RMS(Int)=  0.81349612 XScale=  0.99831173
 RedQX1 iteration     8 Try  1 RMS(Cart)=  0.00983210 RMS(Int)=  0.81348920 XScale=  0.99832373
 RedQX1 iteration     9 Try  1 RMS(Cart)=  0.00196642 RMS(Int)=  0.81281309 XScale=  0.99950236
 RedQX1 iteration     9 Try  2 RMS(Cart)=  0.00196592 RMS(Int)=  0.81298050 XScale=  0.99920959
 RedQX1 iteration     9 Try  3 RMS(Cart)=  0.00196541 RMS(Int)=  0.81314942 XScale=  0.99891516
 RedQX1 iteration    10 Try  1 RMS(Cart)=  0.00195912 RMS(Int)=  0.81314888 XScale=  0.99891610
 RedQX1 iteration    11 Try  1 RMS(Cart)=  0.00039182 RMS(Int)=  0.81301408 XScale=  0.99915101
 RedQX1 iteration    11 Try  2 RMS(Cart)=  0.00039180 RMS(Int)=  0.81304771 XScale=  0.99909236
 RedQX1 iteration    11 Try  3 RMS(Cart)=  0.00039178 RMS(Int)=  0.81308141 XScale=  0.99903364
 RedQX1 iteration    11 Try  4 RMS(Cart)=  0.00039176 RMS(Int)=  0.81311517 XScale=  0.99897486
 RedQX1 iteration    12 Try  1 RMS(Cart)=  0.00039139 RMS(Int)=  0.81311513 XScale=  0.99897491
 RedQX1 iteration    13 Try  1 RMS(Cart)=  0.00007828 RMS(Int)=  0.81308815 XScale=  0.99902190
 RedQX1 iteration    13 Try  2 RMS(Cart)=  0.00007828 RMS(Int)=  0.81309489 XScale=  0.99901015
 RedQX1 iteration    13 Try  3 RMS(Cart)=  0.00007828 RMS(Int)=  0.81310164 XScale=  0.99899841
 RedQX1 iteration    14 Try  1 RMS(Cart)=  0.00007827 RMS(Int)=  0.81310164 XScale=  0.99899841
 RedQX1 iteration    15 Try  1 RMS(Cart)=  0.00001565 RMS(Int)=  0.81309624 XScale=  0.99900781
 RedQX1 iteration    15 Try  2 RMS(Cart)=  0.00001565 RMS(Int)=  0.81309759 XScale=  0.99900546
 RedQX1 iteration    15 Try  3 RMS(Cart)=  0.00001565 RMS(Int)=  0.81309894 XScale=  0.99900311
 RedQX1 iteration    15 Try  4 RMS(Cart)=  0.00001565 RMS(Int)=  0.81310029 XScale=  0.99900076
 RedQX1 iteration    15 Try  5 RMS(Cart)=  0.00001565 RMS(Int)=  0.81310164 XScale=  0.99899841
 RedQX1 iteration    16 Try  1 RMS(Cart)=  0.00001565 RMS(Int)=  0.81310164 XScale=  0.99899841
 RedQX1 iteration    17 Try  1 RMS(Cart)=  0.00000313 RMS(Int)=  0.81310056 XScale=  0.99900029
 RedQX1 iteration    17 Try  2 RMS(Cart)=  0.00000313 RMS(Int)=  0.81310083 XScale=  0.99899982
 RedQX1 iteration    18 Try  1 RMS(Cart)=  0.00000313 RMS(Int)=  0.81310083 XScale=  0.99899982
 RedQX1 iteration    19 Try  1 RMS(Cart)=  0.00000063 RMS(Int)=  0.81310061 XScale=  0.99900020
 RedQX1 iteration    19 Try  2 RMS(Cart)=  0.00000063 RMS(Int)=  0.81310067 XScale=  0.99900010
 RedQX1 iteration    19 Try  3 RMS(Cart)=  0.00000063 RMS(Int)=  0.81310072 XScale=  0.99900001
 RedQX1 iteration    19 Try  4 RMS(Cart)=  0.00000063 RMS(Int)=  0.81310078 XScale=  0.99899991
 RedQX1 iteration    20 Try  1 RMS(Cart)=  0.00000063 RMS(Int)=  0.81310078 XScale=  0.99899991
 Old curvilinear step not converged, using linear step:
 SCX= 8.38D+00 DXMaxT= 4.94-324 SCLim= 0.00D+00 Fact= 0.00D+00
 RedCar/ORedCr failed for GTrans.
 Error termination via Lnk1e in /home1/apps/gaussian/16rA.03/g16/l101.exe at Sat Oct 22 00:25:13 2022.
 Job cpu time:       0 days  0 hours  0 minutes 16.2 seconds.
 Elapsed time:       0 days  0 hours  0 minutes  2.0 seconds.
 File lengths (MBytes):  RWF=      6 Int=      0 D2E=      0 Chk=      1 Scr=      1
