63
	Energy: -3402027.0569243
Mn        -1.01940       -0.13282       -1.30041
C         -1.95084        1.09527       -2.29845
O         -2.50101        1.87539       -2.92239
C         -1.94096       -1.55093       -2.01671
O         -2.47772       -2.45176       -2.46467
C          0.20025       -0.27236       -2.64310
N          0.04927       -1.53221       -0.03083
C          0.07866       -3.04556        1.82820
C          1.46702       -3.12280        1.77993
C          1.37634       -1.67638       -0.11513
H         -0.49205       -3.59310        2.57846
H          2.01871       -3.71611        2.51212
N         -2.37065        0.02942        0.19031
C         -3.16697        0.13023        1.01980
C         -4.10539        0.26580        2.09209
C         -3.62020        0.43566        3.39952
C         -4.52704        0.57079        4.44399
C         -5.48203        0.23058        1.82486
H         -2.54534        0.46071        3.58681
H         -5.82775        0.09615        0.79488
N          0.05018        1.50245       -0.35369
C          0.08073        3.37421        1.14383
C          1.47006        3.42805        1.09346
H         -0.49002        4.07266        1.75603
C         -0.58809       -2.23239        0.92237
H         -1.67251       -2.14107        0.96102
C         -0.58735        2.39419        0.42298
H         -1.67305        2.32336        0.46813
H         -4.16287        0.70328        5.46409
O          0.94147       -0.36186       -3.51126
C          3.71034        0.05692        0.59661
C          6.44285        0.00195        0.07986
C          2.14993       -2.41932        0.78562
C          3.63318       -2.42875        0.67238
C          4.33237       -3.60918        0.65808
C          5.74721       -3.62943        0.48325
C          6.44286       -2.47015        0.28898
C          5.76733       -1.20725        0.29051
C          4.35206       -1.18133        0.52939
H          3.79554       -4.55679        0.74485
H          6.26618       -4.58974        0.47691
H          7.52231       -2.48926        0.12265
C          4.35394        1.25516        0.28141
C          5.76945        1.23001        0.04342
C          6.44775        2.46555       -0.21061
C          5.75436        3.64152       -0.25402
C          4.33929        3.65908       -0.08147
C          3.63726        2.50702        0.16895
H          7.52743        2.44868       -0.37582
H          6.27529        4.58008       -0.45221
H          3.80437        4.60560       -0.18931
C          2.15352        2.52607        0.27520
H          2.02229        4.15802        1.68899
C          1.37923        1.61496       -0.45427
H          1.87683        0.94259       -1.15220
H          1.87309       -1.17143       -0.94303
C         -5.89955        0.53687        4.18594
C         -6.37363        0.36773        2.88435
H         -7.44706        0.34214        2.68994
H         -6.60706        0.64379        5.01079
Br        -5.87537       -0.28615       -1.89241
H          7.52454       -0.01473       -0.07653
H          2.66679        0.08836        0.89635
