 Entering Gaussian System, Link 0=g16
 Initial command:
 /home1/apps/gaussian/16rA.03/g16/l1.exe "/tmp/Gau-236175.inp" -scrdir="/tmp/"
 Entering Link 1 = /home1/apps/gaussian/16rA.03/g16/l1.exe PID=    236177.
  
 Copyright (c) 1988,1990,1992,1993,1995,1998,2003,2009,2016,
            Gaussian, Inc.  All Rights Reserved.
  
 This is part of the Gaussian(R) 16 program.  It is based on
 the Gaussian(R) 09 system (copyright 2009, Gaussian, Inc.),
 the Gaussian(R) 03 system (copyright 2003, Gaussian, Inc.),
 the Gaussian(R) 98 system (copyright 1998, Gaussian, Inc.),
 the Gaussian(R) 94 system (copyright 1995, Gaussian, Inc.),
 the Gaussian 92(TM) system (copyright 1992, Gaussian, Inc.),
 the Gaussian 90(TM) system (copyright 1990, Gaussian, Inc.),
 the Gaussian 88(TM) system (copyright 1988, Gaussian, Inc.),
 the Gaussian 86(TM) system (copyright 1986, Carnegie Mellon
 University), and the Gaussian 82(TM) system (copyright 1983,
 Carnegie Mellon University). Gaussian is a federally registered
 trademark of Gaussian, Inc.
  
 This software contains proprietary and confidential information,
 including trade secrets, belonging to Gaussian, Inc.
  
 This software is provided under written license and may be
 used, copied, transmitted, or stored only in accord with that
 written license.
  
 The following legend is applicable only to US Government
 contracts under FAR:
  
                    RESTRICTED RIGHTS LEGEND
  
 Use, reproduction and disclosure by the US Government is
 subject to restrictions as set forth in subparagraphs (a)
 and (c) of the Commercial Computer Software - Restricted
 Rights clause in FAR 52.227-19.
  
 Gaussian, Inc.
 340 Quinnipiac St., Bldg. 40, Wallingford CT 06492
  
  
 ---------------------------------------------------------------
 Warning -- This program may not be used in any manner that
 competes with the business of Gaussian, Inc. or will provide
 assistance to any competitor of Gaussian, Inc.  The licensee
 of this program is prohibited from giving any competitor of
 Gaussian, Inc. access to this program.  By using this program,
 the user acknowledges that Gaussian, Inc. is engaged in the
 business of creating and licensing software in the field of
 computational chemistry and represents and warrants to the
 licensee that it is not a competitor of Gaussian, Inc. and that
 it will not use this program in any manner prohibited above.
 ---------------------------------------------------------------
  

 Cite this work as:
 Gaussian 16, Revision A.03,
 M. J. Frisch, G. W. Trucks, H. B. Schlegel, G. E. Scuseria, 
 M. A. Robb, J. R. Cheeseman, G. Scalmani, V. Barone, 
 G. A. Petersson, H. Nakatsuji, X. Li, M. Caricato, A. V. Marenich, 
 J. Bloino, B. G. Janesko, R. Gomperts, B. Mennucci, H. P. Hratchian, 
 J. V. Ortiz, A. F. Izmaylov, J. L. Sonnenberg, D. Williams-Young, 
 F. Ding, F. Lipparini, F. Egidi, J. Goings, B. Peng, A. Petrone, 
 T. Henderson, D. Ranasinghe, V. G. Zakrzewski, J. Gao, N. Rega, 
 G. Zheng, W. Liang, M. Hada, M. Ehara, K. Toyota, R. Fukuda, 
 J. Hasegawa, M. Ishida, T. Nakajima, Y. Honda, O. Kitao, H. Nakai, 
 T. Vreven, K. Throssell, J. A. Montgomery, Jr., J. E. Peralta, 
 F. Ogliaro, M. J. Bearpark, J. J. Heyd, E. N. Brothers, K. N. Kudin, 
 V. N. Staroverov, T. A. Keith, R. Kobayashi, J. Normand, 
 K. Raghavachari, A. P. Rendell, J. C. Burant, S. S. Iyengar, 
 J. Tomasi, M. Cossi, J. M. Millam, M. Klene, C. Adamo, R. Cammi, 
 J. W. Ochterski, R. L. Martin, K. Morokuma, O. Farkas, 
 J. B. Foresman, and D. J. Fox, Gaussian, Inc., Wallingford CT, 2016.
 
 ******************************************
 Gaussian 16:  ES64L-G16RevA.03 25-Dec-2016
                17-Feb-2023 
 ******************************************
 %Chk=checkpoint.chk
 %NProcShared=12
 Will use up to   12 processors via shared memory.
 -----------------------------------------------------
 #wB97XD Gen Opt=(QST3) SCRF=(Solvent=TetraHydroFuran)
 -----------------------------------------------------
 1/5=1,18=20,26=3,27=203,38=1/1,3;
 2/9=110,12=2,17=6,18=5,40=1/2;
 3/5=7,11=2,25=1,30=1,70=2201,71=1,72=20,74=-58/1,2,3;
 4//1;
 5/5=2,38=5,53=20/2;
 6/7=2,8=2,9=2,10=2,28=1/1;
 7//1,2,3,16;
 1/5=1,18=20,26=3,27=203/3(2);
 2/9=110/2;
 99//99;
 2/9=110/2;
 3/5=7,6=1,11=2,25=1,30=1,70=2205,71=1,72=20,74=-58,82=7/1,2,3;
 4/5=5,16=3,69=1/1;
 5/5=2,38=5,53=20/2;
 7//1,2,3,16;
 1/5=1,18=20,26=3,27=203/3(-5);
 2/9=110/2;
 6/7=2,8=2,9=2,10=2,19=2,28=1/1;
 99/9=1/99;
 ------------------------------------
 Anthracene Transition State Reactant
 ------------------------------------
 Symbolic Z-matrix:
 Charge =  0 Multiplicity = 1
 Mn                   -1.0194   -0.13282  -1.30041 
 C                    -1.95084   1.09527  -2.29845 
 O                    -2.50101   1.87539  -2.92239 
 C                    -1.94096  -1.55093  -2.01671 
 O                    -2.47772  -2.45176  -2.46467 
 C                     0.20025  -0.27236  -2.6431 
 N                     0.04927  -1.53221  -0.03083 
 C                     0.07866  -3.04556   1.8282 
 C                     1.46702  -3.1228    1.77993 
 C                     1.37634  -1.67638  -0.11513 
 H                    -0.49205  -3.5931    2.57846 
 H                     2.01871  -3.71611   2.51212 
 N                    -2.37065   0.02942   0.19031 
 C                    -3.16697   0.13023   1.0198 
 C                    -4.10539   0.2658    2.09209 
 C                    -3.6202    0.43566   3.39952 
 C                    -4.52704   0.57079   4.44399 
 C                    -5.48203   0.23058   1.82486 
 H                    -2.54534   0.46071   3.58681 
 H                    -5.82775   0.09615   0.79488 
 N                     0.05018   1.50245  -0.35369 
 C                     0.08073   3.37421   1.14383 
 C                     1.47006   3.42805   1.09346 
 H                    -0.49002   4.07266   1.75603 
 C                    -0.58809  -2.23239   0.92237 
 H                    -1.67251  -2.14107   0.96102 
 C                    -0.58735   2.39419   0.42298 
 H                    -1.67305   2.32336   0.46813 
 H                    -4.16287   0.70328   5.46409 
 O                     0.94147  -0.36186  -3.51126 
 C                     3.71034   0.05692   0.59661 
 C                     6.44285   0.00195   0.07986 
 C                     2.14993  -2.41932   0.78562 
 C                     3.63318  -2.42875   0.67238 
 C                     4.33237  -3.60918   0.65808 
 C                     5.74721  -3.62943   0.48325 
 C                     6.44286  -2.47015   0.28898 
 C                     5.76733  -1.20725   0.29051 
 C                     4.35206  -1.18133   0.52939 
 H                     3.79554  -4.55679   0.74485 
 H                     6.26618  -4.58974   0.47691 
 H                     7.52231  -2.48926   0.12265 
 C                     4.35394   1.25516   0.28141 
 C                     5.76945   1.23001   0.04342 
 C                     6.44775   2.46555  -0.21061 
 C                     5.75436   3.64152  -0.25402 
 C                     4.33929   3.65908  -0.08147 
 C                     3.63726   2.50702   0.16895 
 H                     7.52743   2.44868  -0.37582 
 H                     6.27529   4.58008  -0.45221 
 H                     3.80437   4.6056   -0.18931 
 C                     2.15352   2.52607   0.2752 
 H                     2.02229   4.15802   1.68899 
 C                     1.37923   1.61496  -0.45427 
 H                     1.87683   0.94259  -1.1522 
 H                     1.87309  -1.17143  -0.94303 
 C                    -5.89955   0.53687   4.18594 
 C                    -6.37363   0.36773   2.88435 
 H                    -7.44706   0.34214   2.68994 
 H                    -6.60706   0.64379   5.01079 
 Br                   -5.87537  -0.28615  -1.89241 
 H                     7.52454  -0.01473  -0.07653 
 H                     2.66679   0.08836   0.89635 
 
 Add virtual bond connecting atoms Br61       and H20        Dist= 5.13D+00.
 -----------------------------------
 Anthracene Transition State Product
 -----------------------------------
 Symbolic Z-matrix:
 Charge =  0 Multiplicity = 1
 Mn                   -1.44286   0.16026  -2.01412 
 C                    -2.20443   1.54882  -2.90891 
 O                    -2.68366   2.42731  -3.46349 
 C                    -2.21304  -1.07612  -3.10367 
 O                    -2.69804  -1.85971  -3.78172 
 C                    -0.01408   0.23546  -3.09485 
 N                    -0.60049  -1.44099  -0.81185 
 C                    -0.82342  -3.27125   0.71581 
 C                     0.55737  -3.36677   0.85296 
 C                     0.7252   -1.5913   -0.72767 
 H                    -1.48955  -3.94449   1.25661 
 H                     1.00241  -4.09964   1.52935 
 N                     0.0775   -0.17244   2.4041 
 C                    -1.05369  -0.19765   2.64732 
 C                    -2.45976  -0.23136   2.94445 
 C                    -3.12645  -1.4621    3.01383 
 C                    -4.49389  -1.48788   3.26678 
 C                    -3.15853   0.96659   3.1448 
 H                    -2.5722   -2.38909   2.86463 
 H                    -2.62937   1.91849   3.09601 
 N                    -0.59083   1.56154  -0.58857 
 C                    -0.80429   3.1413    1.19825 
 C                     0.5769    3.20654   1.34817 
 H                    -1.46646   3.7285    1.83564 
 C                    -1.3638   -2.28301  -0.09733 
 H                    -2.44255  -2.14076  -0.17604 
 C                    -1.34964   2.291     0.24463 
 H                    -2.42913   2.16919   0.14486 
 H                    -5.01736  -2.44419   3.31559 
 O                     0.86165   0.2873   -3.83871 
 C                     2.91235  -0.04746   0.58557 
 C                     5.69235  -0.04273   0.41158 
 C                     1.36924  -2.49754   0.12252 
 C                     2.85402  -2.5063    0.21569 
 C                     3.56205  -3.67493   0.08887 
 C                     4.98786  -3.68132   0.09599 
 C                     5.69088  -2.51399   0.19056 
 C                     5.00769  -1.26191   0.32192 
 C                     3.57322  -1.26107   0.38259 
 H                     3.02896  -4.61681  -0.06081 
 H                     5.51371  -4.63251  -0.00729 
 H                     6.783    -2.51728   0.16154 
 C                     3.58071   1.17889   0.56648 
 C                     5.01522   1.18024   0.5065 
 C                     5.70587   2.43375   0.56536 
 C                     5.00976   3.60611   0.64834 
 C                     3.58394   3.60941   0.64 
 C                     2.86897   2.43926   0.58848 
 H                     6.79801   2.43509   0.53708 
 H                     5.54131   4.55882   0.69009 
 H                     3.05653   4.56629   0.63458 
 C                     1.38429   2.45343   0.49431 
 H                     1.02578   3.82526   2.12808 
 C                     0.73572   1.68987  -0.48314 
 H                     1.34033   1.15471  -1.214 
 H                     1.33286  -0.9558   -1.37019 
 C                    -5.19354  -0.29487   3.45284 
 C                    -4.52569   0.92909   3.39758 
 H                    -5.07398   1.86057   3.54798 
 H                    -6.26798  -0.31941   3.64516 
 Br                   -3.72263   0.07153  -0.71897 
 H                     1.84487  -0.05936   0.78995 
 H                     6.78538  -0.04496   0.39399 
 
 Add virtual bond connecting atoms N7         and Mn1        Dist= 4.11D+00.
 Add virtual bond connecting atoms N21        and Mn1        Dist= 4.11D+00.
 Add virtual bond connecting atoms H11        and H19        Dist= 4.70D+00.
 Add virtual bond connecting atoms H24        and H20        Dist= 4.71D+00.
 Add virtual bond connecting atoms H62        and N13        Dist= 4.53D+00.
 -----------------------------------------
 Anthracene Transition State Initial Guess
 -----------------------------------------
 Symbolic Z-matrix:
 Charge =  0 Multiplicity = 1
 Mn                   -0.91943  -0.1681   -2.3078 
 C                    -1.6162    0.99724  -3.52641 
 O                    -1.99041   1.73812  -4.31375 
 C                    -1.70554  -1.57803  -3.19376 
 O                    -2.10721  -2.49572  -3.74604 
 C                     0.49843  -0.36586  -3.35116 
 N                    -0.23971  -1.56998  -1.00457 
 C                    -0.72897  -3.30978   0.5712 
 C                     0.58854  -3.30347   1.026 
 C                     1.04211  -1.656    -0.6358 
 H                    -1.47316  -3.98259   1.00659 
 H                     0.89501  -3.95527   1.84831 
 N                    -1.77564   0.11212   0.34602 
 C                    -2.14305   0.17127   1.44438 
 C                    -2.67468   0.28033   2.7834 
 C                    -1.84673   0.59073   3.86464 
 C                    -2.39831   0.72551   5.14202 
 C                    -4.04468   0.08897   2.98221 
 H                    -0.78354   0.73485   3.69483 
 H                    -4.66912  -0.15333   2.12259 
 N                    -0.17436   1.42526  -1.32877 
 C                    -0.64904   3.40659  -0.06303 
 C                     0.6753    3.48613   0.36049 
 H                    -1.3915    4.13075   0.27214 
 C                    -1.1078   -2.42008  -0.4216 
 H                    -2.15054  -2.35436  -0.74357 
 C                    -1.03741   2.35496  -0.88131 
 H                    -2.08514   2.21326  -1.16331 
 H                    -1.76132   0.97549   5.99042 
 O                     1.38096  -0.53022  -4.07597 
 C                     2.99574   0.0958    0.76237 
 C                     5.75698   0.09656   1.1489 
 C                     1.51563  -2.45506   0.41206 
 C                     2.95237  -2.4037    0.81002 
 C                     3.65545  -3.56333   1.02229 
 C                     5.05216  -3.54828   1.32447 
 C                     5.74449  -2.3715    1.36391 
 C                     5.06937  -1.12568   1.14042 
 C                     3.64825  -1.13234   0.91263 
 H                     3.14849  -4.52718   0.91864 
 H                     5.56924  -4.49743   1.48904 
 H                     6.82314  -2.35833   1.55436 
 C                     3.68963   1.30743   0.6515 
 C                     5.10979   1.30989   0.88317 
 C                     5.82023   2.55823   0.84883 
 C                     5.16074   3.71887   0.56795 
 C                     3.76396   3.70982   0.26357 
 C                     3.02942   2.54857   0.28628 
 H                     6.89875   2.55773   1.04353 
 H                     5.70477   4.66846   0.54087 
 H                     3.28515   4.64547  -0.03663 
 C                     1.59355   2.54751  -0.11476 
 H                     0.98922   4.26278   1.06533 
 C                     1.11061   1.5815   -1.00719 
 H                     1.81373   0.8909   -1.46884 
 H                     1.75325  -1.051    -1.20011 
 C                    -3.7608    0.54325   5.34152 
 C                    -4.58191   0.21971   4.2666 
 H                    -5.64659   0.07874   4.43164 
 H                    -4.18997   0.6552    6.34661 
 Br                   -3.92705   0.01213  -1.93206 
 H                     6.8338    0.102     1.35274 
 H                     1.90791   0.11195   0.71076 
 

 GradGradGradGradGradGradGradGradGradGradGradGradGradGradGradGradGradGrad
 Berny optimization.
 Initialization pass.
                           ----------------------------
                           !    Initial Parameters    !
                           ! (Angstroms and Degrees)  !
 --------------------------                            --------------------------
 ! Name  Definition         TS        Reactant Product Derivative Info.         !
 --------------------------------------------------------------------------------
 ! R1    R(1,2)             1.8244    1.8363    1.819  estimate D2E/DX2         !
 ! R2    R(1,4)             1.8414    1.8367    1.819  estimate D2E/DX2         !
 ! R3    R(1,6)             1.7714    1.8193    1.7931 estimate D2E/DX2         !
 ! R4    R(1,7)             2.0312    2.1708    2.1723 estimate D2E/DX2         !
 ! R5    R(1,13)            2.8026    2.0185    4.6843 estimate D2E/DX2         !
 ! R6    R(1,21)            2.0131    2.1713    2.173  estimate D2E/DX2         !
 ! R7    R(1,61)            3.0364    4.8943    2.6235 estimate D2E/DX2         !
 ! R8    R(2,3)             1.144     1.1404    1.1441 estimate D2E/DX2         !
 ! R9    R(4,5)             1.1439    1.1403    1.1441 estimate D2E/DX2         !
 ! R10   R(6,30)            1.1538    1.145     1.1502 estimate D2E/DX2         !
 ! R11   R(7,10)            1.3366    1.3375    1.3368 estimate D2E/DX2         !
 ! R12   R(7,25)            1.3476    1.3435    1.3425 estimate D2E/DX2         !
 ! R13   R(8,9)             1.3938    1.3913    1.3909 estimate D2E/DX2         !
 ! R14   R(8,11)            1.0936    1.0901    1.0906 estimate D2E/DX2         !
 ! R15   R(8,25)            1.3859    1.3879    1.3892 estimate D2E/DX2         !
 ! R16   R(9,12)            1.0931    1.092     1.0921 estimate D2E/DX2         !
 ! R17   R(9,33)            1.3986    1.3964    1.3958 estimate D2E/DX2         !
 ! R18   R(10,33)           1.4003    1.4006    1.3996 estimate D2E/DX2         !
 ! R19   R(10,56)           1.091     1.0896    1.089  estimate D2E/DX2         !
 ! R20   R(11,19)           5.4733    4.6547    2.4854 estimate D2E/DX2         !
 ! R21   R(13,14)           1.1597    1.1543    1.1573 estimate D2E/DX2         !
 ! R22   R(13,62)           8.6681    9.8989    2.3962 estimate D2E/DX2         !
 ! R23   R(14,15)           1.4448    1.4314    1.4375 estimate D2E/DX2         !
 ! R24   R(15,16)           1.3968    1.4049    1.4014 estimate D2E/DX2         !
 ! R25   R(15,18)           1.3975    1.4028    1.4013 estimate D2E/DX2         !
 ! R26   R(16,17)           1.3979    1.3898    1.3909 estimate D2E/DX2         !
 ! R27   R(16,19)           1.0863    1.0913    1.0903 estimate D2E/DX2         !
 ! R28   R(17,29)           1.09      1.0912    1.0913 estimate D2E/DX2         !
 ! R29   R(17,57)           1.389     1.397     1.3955 estimate D2E/DX2         !
 ! R30   R(18,20)           1.0898    1.0947    1.0902 estimate D2E/DX2         !
 ! R31   R(18,58)           1.3983    1.3915    1.3908 estimate D2E/DX2         !
 ! R32   R(20,24)           5.7027    6.7252    2.4934 estimate D2E/DX2         !
 ! R33   R(20,61)           4.1253    2.7148    4.3773 estimate D2E/DX2         !
 ! R34   R(21,27)           1.3451    1.3435    1.3424 estimate D2E/DX2         !
 ! R35   R(21,54)           1.3338    1.3376    1.3369 estimate D2E/DX2         !
 ! R36   R(22,23)           1.3927    1.3913    1.3908 estimate D2E/DX2         !
 ! R37   R(22,24)           1.0899    1.0901    1.0907 estimate D2E/DX2         !
 ! R38   R(22,27)           1.3879    1.3879    1.3892 estimate D2E/DX2         !
 ! R39   R(23,52)           1.3964    1.3965    1.3958 estimate D2E/DX2         !
 ! R40   R(23,53)           1.0948    1.092     1.092  estimate D2E/DX2         !
 ! R41   R(25,26)           1.0933    1.0889    1.0909 estimate D2E/DX2         !
 ! R42   R(27,28)           1.0942    1.0889    1.0909 estimate D2E/DX2         !
 ! R43   R(31,39)           1.3988    1.3963    1.3967 estimate D2E/DX2         !
 ! R44   R(31,43)           1.4007    1.3962    1.3968 estimate D2E/DX2         !
 ! R45   R(31,62)           3.8832    3.8738    1.0869 estimate D2E/DX2         !
 ! R46   R(31,63)           1.0892    1.0862    3.8778 estimate D2E/DX2         !
 ! R47   R(32,38)           1.4024    1.401     1.4011 estimate D2E/DX2         !
 ! R48   R(32,44)           1.4006    1.401     1.4011 estimate D2E/DX2         !
 ! R49   R(32,62)           1.096     1.0931    3.8661 estimate D2E/DX2         !
 ! R50   R(32,63)           3.874     3.8643    1.0932 estimate D2E/DX2         !
 ! R51   R(33,34)           1.4917    1.4876    1.4877 estimate D2E/DX2         !
 ! R52   R(34,35)           1.3726    1.372     1.3723 estimate D2E/DX2         !
 ! R53   R(34,39)           1.453     1.4468    1.4477 estimate D2E/DX2         !
 ! R54   R(35,36)           1.4291    1.4257    1.4258 estimate D2E/DX2         !
 ! R55   R(35,40)           1.094     1.0926    1.0926 estimate D2E/DX2         !
 ! R56   R(36,37)           1.3659    1.3659    1.366  estimate D2E/DX2         !
 ! R57   R(36,41)           1.0933    1.0916    1.0918 estimate D2E/DX2         !
 ! R58   R(37,38)           1.4345    1.4322    1.4324 estimate D2E/DX2         !
 ! R59   R(37,42)           1.0954    1.0924    1.0925 estimate D2E/DX2         !
 ! R60   R(38,39)           1.4393    1.4355    1.4358 estimate D2E/DX2         !
 ! R61   R(43,44)           1.4389    1.4356    1.4358 estimate D2E/DX2         !
 ! R62   R(43,48)           1.4525    1.4469    1.4476 estimate D2E/DX2         !
 ! R63   R(44,45)           1.4367    1.4322    1.4324 estimate D2E/DX2         !
 ! R64   R(45,46)           1.3641    1.3659    1.366  estimate D2E/DX2         !
 ! R65   R(45,49)           1.096     1.0924    1.0925 estimate D2E/DX2         !
 ! R66   R(46,47)           1.4296    1.4257    1.4258 estimate D2E/DX2         !
 ! R67   R(46,50)           1.0947    1.0916    1.0918 estimate D2E/DX2         !
 ! R68   R(47,48)           1.3743    1.3722    1.3723 estimate D2E/DX2         !
 ! R69   R(47,51)           1.0931    1.0926    1.0926 estimate D2E/DX2         !
 ! R70   R(48,52)           1.4908    1.4877    1.4877 estimate D2E/DX2         !
 ! R71   R(52,54)           1.401     1.4006    1.3997 estimate D2E/DX2         !
 ! R72   R(54,55)           1.0883    1.0894    1.0891 estimate D2E/DX2         !
 ! R73   R(57,58)           1.3908    1.3955    1.3954 estimate D2E/DX2         !
 ! R74   R(57,60)           1.0986    1.092     1.0918 estimate D2E/DX2         !
 ! R75   R(58,59)           1.0866    1.0912    1.0913 estimate D2E/DX2         !
 ! A1    A(2,1,4)          90.2669   92.8602   92.6906 estimate D2E/DX2         !
 ! A2    A(2,1,6)          89.0594   89.4398   90.2928 estimate D2E/DX2         !
 ! A3    L(2,1,7,4,-1)    175.8569  181.5632  182.3854 estimate D2E/DX2         !
 ! A4    L(2,1,7,4,-2)    181.0695  182.4131  183.4865 estimate D2E/DX2         !
 ! A5    A(2,1,13)        116.8687   90.4629  130.8496 estimate D2E/DX2         !
 ! A6    A(2,1,21)         87.7437   89.035    89.6911 estimate D2E/DX2         !
 ! A7    A(2,1,61)         70.515    56.7659   84.5395 estimate D2E/DX2         !
 ! A8    A(4,1,6)          88.4432   89.3883   90.279  estimate D2E/DX2         !
 ! A9    A(4,1,7)          85.59     88.703    89.6949 estimate D2E/DX2         !
 ! A10   A(4,1,13)        113.6864   90.8132  130.8505 estimate D2E/DX2         !
 ! A11   L(4,1,21,2,-1)   178.0106  181.8953  182.3816 estimate D2E/DX2         !
 ! A12   L(4,1,21,2,-2)   177.0136  177.8035  176.5025 estimate D2E/DX2         !
 ! A13   A(4,1,61)         71.4651   55.3068   84.5361 estimate D2E/DX2         !
 ! A14   A(6,1,7)          91.8913   92.9897   93.1816 estimate D2E/DX2         !
 ! A15   L(6,1,13,2,-1)   205.928   179.9027  221.1424 estimate D2E/DX2         !
 ! A16   L(6,1,13,2,-2)   205.3564  180.197   245.2912 estimate D2E/DX2         !
 ! A17   A(6,1,21)         94.5066   92.827    93.2059 estimate D2E/DX2         !
 ! A18   L(6,1,61,2,-1)   159.5743  146.2057  174.8323 estimate D2E/DX2         !
 ! A19   L(6,1,61,2,-2)   158.6319  133.7926  174.5395 estimate D2E/DX2         !
 ! A20   A(7,1,13)         64.1312   87.1023   45.5557 estimate D2E/DX2         !
 ! A21   A(7,1,21)         96.3375   89.3121   87.7196 estimate D2E/DX2         !
 ! A22   A(7,1,61)        107.0404  122.615    92.2245 estimate D2E/DX2         !
 ! A23   A(13,1,21)        64.7484   86.9744   45.554  estimate D2E/DX2         !
 ! A24   A(21,1,61)       105.0376  124.4079   92.2164 estimate D2E/DX2         !
 ! A25   L(1,2,3,18,-1)   182.7681  181.2299  179.5621 estimate D2E/DX2         !
 ! A26   L(1,2,3,22,-1)   179.9431  179.0518  179.5279 estimate D2E/DX2         !
 ! A27   L(1,2,3,18,-2)   177.5789  178.8291  179.7608 estimate D2E/DX2         !
 ! A28   L(1,2,3,22,-2)   176.4883  178.5473  180.1171 estimate D2E/DX2         !
 ! A29   L(1,4,5,8,-1)    178.2013  178.9781  179.5473 estimate D2E/DX2         !
 ! A30   L(1,4,5,8,-2)    184.5638  181.8662  179.8672 estimate D2E/DX2         !
 ! A31   L(1,6,30,10,-1)  181.7215  181.4747  182.6714 estimate D2E/DX2         !
 ! A32   L(1,6,30,10,-2)  176.7394  178.99    178.0594 estimate D2E/DX2         !
 ! A33   A(1,7,10)        122.8454  121.4044  120.1501 estimate D2E/DX2         !
 ! A34   A(1,7,25)        119.8256  121.1552  122.4403 estimate D2E/DX2         !
 ! A35   A(10,7,25)       117.2465  117.3369  117.3751 estimate D2E/DX2         !
 ! A36   A(9,8,11)        121.0709  121.2244  121.0019 estimate D2E/DX2         !
 ! A37   A(9,8,25)        119.2893  119.2911  119.5213 estimate D2E/DX2         !
 ! A38   A(11,8,25)       119.6119  119.4687  119.4588 estimate D2E/DX2         !
 ! A39   A(8,9,12)        120.515   120.7321  120.7784 estimate D2E/DX2         !
 ! A40   A(8,9,33)        119.0829  118.9955  118.8861 estimate D2E/DX2         !
 ! A41   A(12,9,33)       120.4016  120.2701  120.331  estimate D2E/DX2         !
 ! A42   A(7,10,33)       124.5764  124.3771  124.5675 estimate D2E/DX2         !
 ! A43   A(7,10,56)       116.5348  116.7619  116.7806 estimate D2E/DX2         !
 ! A44   A(33,10,56)      118.8884  118.8603  118.6518 estimate D2E/DX2         !
 ! A45   A(8,11,19)        65.137    86.7094  101.5699 estimate D2E/DX2         !
 ! A46   L(1,13,14,8,-1)  177.4964  181.4217  143.4264 estimate D2E/DX2         !
 ! A47   L(1,13,14,8,-2)  181.4327  180.9146  272.8095 estimate D2E/DX2         !
 ! A48   A(14,13,62)      101.8141  135.1856  149.7131 estimate D2E/DX2         !
 ! A49   L(13,14,15,11,-1)  181.7614  178.6485  179.8378 estimate D2E/DX2       !
 ! A50   L(13,14,15,1,-1)  178.4088  179.3423  179.8053 estimate D2E/DX2        !
 ! A51   L(13,14,15,11,-2)  183.0386  177.655  180.1544 estimate D2E/DX2        !
 ! A52   L(13,14,15,1,-2)  248.5784  323.0409  179.8888 estimate D2E/DX2        !
 ! A53   A(14,15,16)      121.0698  118.8297  119.745  estimate D2E/DX2         !
 ! A54   A(14,15,18)      118.8304  119.8879  119.8197 estimate D2E/DX2         !
 ! A55   A(16,15,18)      120.093   121.2822  120.4296 estimate D2E/DX2         !
 ! A56   A(15,16,17)      119.6632  119.0657  119.537  estimate D2E/DX2         !
 ! A57   A(15,16,19)      119.2515  120.1746  119.8713 estimate D2E/DX2         !
 ! A58   A(17,16,19)      121.0815  120.7597  120.591  estimate D2E/DX2         !
 ! A59   A(16,17,29)      120.184   119.7748  119.7337 estimate D2E/DX2         !
 ! A60   A(16,17,57)      120.3737  119.9927  120.0872 estimate D2E/DX2         !
 ! A61   A(29,17,57)      119.4422  120.2326  120.1787 estimate D2E/DX2         !
 ! A62   A(15,18,20)      118.6824  119.4873  119.8693 estimate D2E/DX2         !
 ! A63   A(15,18,58)      119.6358  118.7694  119.546  estimate D2E/DX2         !
 ! A64   A(20,18,58)      121.6806  121.7433  120.5838 estimate D2E/DX2         !
 ! A65   A(11,19,16)       80.7409  112.1661  147.3575 estimate D2E/DX2         !
 ! A66   A(18,20,24)       76.0894   62.7598  151.9875 estimate D2E/DX2         !
 ! A67   A(18,20,61)      131.5531  162.5838   63.2149 estimate D2E/DX2         !
 ! A68   A(1,21,27)       118.1231  121.2128  122.409  estimate D2E/DX2         !
 ! A69   A(1,21,54)       124.5097  121.3339  120.1792 estimate D2E/DX2         !
 ! A70   A(27,21,54)      117.191   117.3326  117.3719 estimate D2E/DX2         !
 ! A71   A(23,22,24)      121.0845  121.2226  120.9754 estimate D2E/DX2         !
 ! A72   A(23,22,27)      119.2518  119.2873  119.5087 estimate D2E/DX2         !
 ! A73   A(24,22,27)      119.6105  119.4755  119.497  estimate D2E/DX2         !
 ! A74   A(22,23,52)      118.9083  119.0084  118.8945 estimate D2E/DX2         !
 ! A75   A(22,23,53)      120.5958  120.7383  120.7806 estimate D2E/DX2         !
 ! A76   A(52,23,53)      120.4903  120.2517  120.3201 estimate D2E/DX2         !
 ! A77   A(20,24,22)       89.5518   87.5038  100.821  estimate D2E/DX2         !
 ! A78   A(7,25,8)        122.5998  122.7164  122.4501 estimate D2E/DX2         !
 ! A79   A(7,25,26)       116.684   116.9941  116.2352 estimate D2E/DX2         !
 ! A80   A(8,25,26)       120.6805  120.2893  121.3081 estimate D2E/DX2         !
 ! A81   A(21,27,22)      122.7024  122.7187  122.4637 estimate D2E/DX2         !
 ! A82   A(21,27,28)      116.0466  116.996   116.2248 estimate D2E/DX2         !
 ! A83   A(22,27,28)      121.1975  120.2851  121.3045 estimate D2E/DX2         !
 ! A84   A(39,31,43)      122.4734  122.5723  122.3093 estimate D2E/DX2         !
 ! A85   A(39,31,62)       61.5765   61.4914  118.8492 estimate D2E/DX2         !
 ! A86   A(39,31,63)      118.9477  118.7182   61.3666 estimate D2E/DX2         !
 ! A87   A(43,31,62)       61.3805   61.4953  118.8238 estimate D2E/DX2         !
 ! A88   A(43,31,63)      118.569   118.7067   61.3697 estimate D2E/DX2         !
 ! A89   A(38,32,44)      121.8232  121.9166  121.8486 estimate D2E/DX2         !
 ! A90   A(38,32,62)      119.1559  119.0443   61.0678 estimate D2E/DX2         !
 ! A91   A(38,32,63)       61.0285   61.0778  119.0633 estimate D2E/DX2         !
 ! A92   A(44,32,62)      119.0131  119.0318   61.0645 estimate D2E/DX2         !
 ! A93   A(44,32,63)       61.0519   61.068   119.0833 estimate D2E/DX2         !
 ! A94   A(9,33,10)       116.7747  117.0675  116.9662 estimate D2E/DX2         !
 ! A95   A(9,33,34)       122.8334  122.5908  122.9607 estimate D2E/DX2         !
 ! A96   A(10,33,34)      120.3774  120.3387  120.073  estimate D2E/DX2         !
 ! A97   A(33,34,35)      120.3646  120.9546  120.9417 estimate D2E/DX2         !
 ! A98   A(33,34,39)      120.6807  119.8331  119.8661 estimate D2E/DX2         !
 ! A99   A(35,34,39)      118.8804  119.1791  119.1341 estimate D2E/DX2         !
 ! A100  A(34,35,36)      121.6282  121.2786  121.2856 estimate D2E/DX2         !
 ! A101  A(34,35,40)      119.4931  119.6689  119.674  estimate D2E/DX2         !
 ! A102  A(36,35,40)      118.8307  119.0134  118.9947 estimate D2E/DX2         !
 ! A103  A(35,36,37)      120.7007  120.7171  120.7422 estimate D2E/DX2         !
 ! A104  A(35,36,41)      119.0066  119.0123  119.0173 estimate D2E/DX2         !
 ! A105  A(37,36,41)      120.2565  120.2457  120.2125 estimate D2E/DX2         !
 ! A106  A(36,37,38)      120.3431  120.5328  120.5232 estimate D2E/DX2         !
 ! A107  A(36,37,42)      120.9633  120.6705  120.6689 estimate D2E/DX2         !
 ! A108  A(38,37,42)      118.6899  118.7953  118.8069 estimate D2E/DX2         !
 ! A109  A(32,38,37)      121.682   122.24    122.2362 estimate D2E/DX2         !
 ! A110  A(32,38,39)      119.2821  118.9991  119.0121 estimate D2E/DX2         !
 ! A111  A(37,38,39)      119.0339  118.758   118.7457 estimate D2E/DX2         !
 ! A112  A(31,39,34)      122.496   122.1059  121.9443 estimate D2E/DX2         !
 ! A113  A(31,39,38)      118.2637  118.4984  118.6455 estimate D2E/DX2         !
 ! A114  A(34,39,38)      119.2174  119.389   119.4053 estimate D2E/DX2         !
 ! A115  A(31,43,44)      118.5335  118.4837  118.6513 estimate D2E/DX2         !
 ! A116  A(31,43,48)      122.2697  122.1247  121.9344 estimate D2E/DX2         !
 ! A117  A(44,43,48)      119.1852  119.3848  119.4097 estimate D2E/DX2         !
 ! A118  A(32,44,43)      119.0207  119.0099  119.0034 estimate D2E/DX2         !
 ! A119  A(32,44,45)      121.9205  122.2187  122.2494 estimate D2E/DX2         !
 ! A120  A(43,44,45)      119.0557  118.7686  118.7409 estimate D2E/DX2         !
 ! A121  A(44,45,46)      120.3388  120.528   120.5213 estimate D2E/DX2         !
 ! A122  A(44,45,49)      118.8141  118.7904  118.817  estimate D2E/DX2         !
 ! A123  A(46,45,49)      120.8451  120.6802  120.6609 estimate D2E/DX2         !
 ! A124  A(45,46,47)      120.7174  120.7068  120.7457 estimate D2E/DX2         !
 ! A125  A(45,46,50)      120.1896  120.2507  120.209  estimate D2E/DX2         !
 ! A126  A(47,46,50)      119.063   119.0168  119.0169 estimate D2E/DX2         !
 ! A127  A(46,47,48)      121.6052  121.3037  121.2822 estimate D2E/DX2         !
 ! A128  A(46,47,51)      118.7538  118.9924  118.9961 estimate D2E/DX2         !
 ! A129  A(48,47,51)      119.5847  119.663   119.6765 estimate D2E/DX2         !
 ! A130  A(43,48,47)      118.8984  119.1567  119.1323 estimate D2E/DX2         !
 ! A131  A(43,48,52)      120.3192  119.9705  119.8668 estimate D2E/DX2         !
 ! A132  A(47,48,52)      120.7276  120.8346  120.9443 estimate D2E/DX2         !
 ! A133  A(23,52,48)      122.7718  122.5636  122.9353 estimate D2E/DX2         !
 ! A134  A(23,52,54)      116.9735  117.0493  116.97   estimate D2E/DX2         !
 ! A135  A(48,52,54)      120.2544  120.3865  120.0947 estimate D2E/DX2         !
 ! A136  A(21,54,52)      124.5021  124.391   124.5567 estimate D2E/DX2         !
 ! A137  A(21,54,55)      116.4755  116.7506  116.7927 estimate D2E/DX2         !
 ! A138  A(52,54,55)      119.0151  118.8579  118.6503 estimate D2E/DX2         !
 ! A139  A(17,57,58)      119.9089  120.597   120.3067 estimate D2E/DX2         !
 ! A140  A(17,57,60)      120.0806  119.6479  119.8457 estimate D2E/DX2         !
 ! A141  A(58,57,60)      120.0105  119.7552  119.8473 estimate D2E/DX2         !
 ! A142  A(18,58,57)      120.3196  120.2931  120.0864 estimate D2E/DX2         !
 ! A143  A(18,58,59)      120.2532  119.4952  119.7296 estimate D2E/DX2         !
 ! A144  A(57,58,59)      119.4246  120.2117  120.1834 estimate D2E/DX2         !
 ! A145  A(13,62,31)        2.0814    8.5014  148.3802 estimate D2E/DX2         !
 ! D1    D(4,1,7,10)      129.6578  118.0929  116.3527 estimate D2E/DX2         !
 ! D2    D(4,1,7,25)      -53.7375  -65.7047  -65.8409 estimate D2E/DX2         !
 ! D3    D(6,1,7,10)       41.366    28.7733   26.0902 estimate D2E/DX2         !
 ! D4    D(6,1,7,25)     -142.0293 -155.0243 -156.1034 estimate D2E/DX2         !
 ! D5    D(13,1,7,10)    -111.3173 -151.027   -86.5137 estimate D2E/DX2         !
 ! D6    D(13,1,7,25)      65.2874   25.1754   91.2927 estimate D2E/DX2         !
 ! D7    D(21,1,7,10)     -53.3816  -64.0218  -66.9962 estimate D2E/DX2         !
 ! D8    D(21,1,7,25)     123.2231  112.1806  110.8102 estimate D2E/DX2         !
 ! D9    D(61,1,7,10)    -161.2647  164.4312 -159.1273 estimate D2E/DX2         !
 ! D10   D(61,1,7,25)      15.34    -19.3665   18.679  estimate D2E/DX2         !
 ! D11   D(2,1,15,16)    -118.1894 -132.5668  117.3152 estimate D2E/DX2         !
 ! D12   D(2,1,15,18)      60.7281   46.8712   -7.0382 estimate D2E/DX2         !
 ! D13   D(4,1,15,16)     139.5259  134.5698    8.9434 estimate D2E/DX2         !
 ! D14   D(4,1,15,18)     -41.5567  -45.9921 -115.41   estimate D2E/DX2         !
 ! D15   D(7,1,15,16)      66.488    45.9148  -62.8995 estimate D2E/DX2         !
 ! D16   D(7,1,15,18)    -114.5945 -134.6472  172.7471 estimate D2E/DX2         !
 ! D17   D(21,1,15,16)    -43.9701  -43.5417 -170.8879 estimate D2E/DX2         !
 ! D18   D(21,1,15,18)    134.9474  135.8964   64.7587 estimate D2E/DX2         !
 ! D19   D(2,1,21,27)      59.6138   64.9775   66.0092 estimate D2E/DX2         !
 ! D20   D(2,1,21,54)    -125.3565 -119.1227 -116.3481 estimate D2E/DX2         !
 ! D21   D(6,1,21,27)     148.4915  154.3689  156.2852 estimate D2E/DX2         !
 ! D22   D(6,1,21,54)     -36.4787  -29.7313  -26.0721 estimate D2E/DX2         !
 ! D23   D(7,1,21,27)    -119.0978 -112.6715 -110.6537 estimate D2E/DX2         !
 ! D24   D(7,1,21,54)      55.932    63.2282   66.989  estimate D2E/DX2         !
 ! D25   D(13,1,21,27)    -61.6291  -25.5371  -91.1356 estimate D2E/DX2         !
 ! D26   D(13,1,21,54)    113.4006  150.3627   86.5071 estimate D2E/DX2         !
 ! D27   D(61,1,21,27)     -9.5167   17.5031  -18.5141 estimate D2E/DX2         !
 ! D28   D(61,1,21,54)    165.5131 -166.5972  159.1286 estimate D2E/DX2         !
 ! D29   D(1,7,10,33)     169.1404  170.9989  173.1231 estimate D2E/DX2         !
 ! D30   D(1,7,10,56)     -10.6115   -8.6878   -6.7473 estimate D2E/DX2         !
 ! D31   D(25,7,10,33)     -7.5465   -5.3429   -4.7922 estimate D2E/DX2         !
 ! D32   D(25,7,10,56)    172.7016  174.9705  175.3374 estimate D2E/DX2         !
 ! D33   D(1,7,25,8)     -173.5247 -174.1697 -177.2166 estimate D2E/DX2         !
 ! D34   D(1,7,25,26)       4.3125    5.9781    1.8568 estimate D2E/DX2         !
 ! D35   D(10,7,25,8)       3.267     2.1817    0.6474 estimate D2E/DX2         !
 ! D36   D(10,7,25,26)   -178.8958 -177.6705  179.7208 estimate D2E/DX2         !
 ! D37   D(11,8,9,12)      -1.6751   -1.589    -1.8553 estimate D2E/DX2         !
 ! D38   D(11,8,9,33)     178.0702  178.9627  178.9172 estimate D2E/DX2         !
 ! D39   D(25,8,9,12)     176.3982  176.9571  176.5923 estimate D2E/DX2         !
 ! D40   D(25,8,9,33)      -3.8565   -2.4911   -2.6352 estimate D2E/DX2         !
 ! D41   D(9,8,11,19)      85.1079  128.0158  111.5414 estimate D2E/DX2         !
 ! D42   D(25,8,11,19)    -92.9592  -50.5278  -66.9071 estimate D2E/DX2         !
 ! D43   D(9,8,25,7)        2.2759    1.6357    2.9883 estimate D2E/DX2         !
 ! D44   D(9,8,25,26)    -175.4771 -178.5168 -176.0389 estimate D2E/DX2         !
 ! D45   D(11,8,25,7)    -179.6223 -179.7923 -178.5399 estimate D2E/DX2         !
 ! D46   D(11,8,25,26)      2.6247    0.0552    2.4328 estimate D2E/DX2         !
 ! D47   D(8,9,33,10)       0.0712   -0.3199   -1.0696 estimate D2E/DX2         !
 ! D48   D(8,9,33,34)    -178.5446  179.0584  179.0325 estimate D2E/DX2         !
 ! D49   D(12,9,33,10)    179.8169 -179.7707  179.6995 estimate D2E/DX2         !
 ! D50   D(12,9,33,34)      1.201    -0.3925   -0.1985 estimate D2E/DX2         !
 ! D51   D(7,10,33,9)       5.9051    4.4392    5.015  estimate D2E/DX2         !
 ! D52   D(7,10,33,34)   -175.443  -174.9538 -175.0839 estimate D2E/DX2         !
 ! D53   D(56,10,33,9)   -174.3485 -175.8802 -175.1168 estimate D2E/DX2         !
 ! D54   D(56,10,33,34)     4.3035    4.7267    4.7842 estimate D2E/DX2         !
 ! D55   D(8,11,19,16)    145.9799  117.7639   53.3578 estimate D2E/DX2         !
 ! D56   D(62,13,15,16)    12.0322    0.4233   89.7844 estimate D2E/DX2         !
 ! D57   D(62,13,15,18)  -169.9535 -179.8178  -89.249  estimate D2E/DX2         !
 ! D58   D(14,13,62,31)   178.6101    1.3918 -178.9573 estimate D2E/DX2         !
 ! D59   D(14,15,16,17)   178.2266  179.857  -178.3155 estimate D2E/DX2         !
 ! D60   D(14,15,16,19)    -1.0674   -0.1263    1.3773 estimate D2E/DX2         !
 ! D61   D(18,15,16,17)    -0.8157    0.0027    0.8132 estimate D2E/DX2         !
 ! D62   D(18,15,16,19)   179.8903 -179.9806 -179.494  estimate D2E/DX2         !
 ! D63   D(14,15,18,20)     0.9976    0.1848   -1.3207 estimate D2E/DX2         !
 ! D64   D(14,15,18,58)  -178.5943 -179.8524  178.3373 estimate D2E/DX2         !
 ! D65   D(16,15,18,20)  -179.9387 -179.9624  179.5513 estimate D2E/DX2         !
 ! D66   D(16,15,18,58)     0.4693    0.0003   -0.7907 estimate D2E/DX2         !
 ! D67   D(15,16,17,29)  -179.5051  179.998   179.6371 estimate D2E/DX2         !
 ! D68   D(15,16,17,57)     0.4575   -0.0077   -0.1502 estimate D2E/DX2         !
 ! D69   D(19,16,17,29)    -0.2243   -0.0189   -0.0534 estimate D2E/DX2         !
 ! D70   D(19,16,17,57)   179.7382  179.9755 -179.8408 estimate D2E/DX2         !
 ! D71   D(15,16,19,11)   -48.7465  -64.5372  -76.5178 estimate D2E/DX2         !
 ! D72   D(17,16,19,11)   131.9698  115.4798  103.1717 estimate D2E/DX2         !
 ! D73   D(16,17,57,58)     0.2491    0.0098   -0.5324 estimate D2E/DX2         !
 ! D74   D(16,17,57,60)  -179.699  -179.988   179.6298 estimate D2E/DX2         !
 ! D75   D(29,17,57,58)  -179.7881 -179.9959  179.6812 estimate D2E/DX2         !
 ! D76   D(29,17,57,60)     0.2638    0.0063   -0.1566 estimate D2E/DX2         !
 ! D77   D(15,18,20,24)   -45.4799  -39.6752   72.2844 estimate D2E/DX2         !
 ! D78   D(15,18,20,61)   -12.8743    2.2233   79.8547 estimate D2E/DX2         !
 ! D79   D(58,18,20,24)   134.1033  140.3632 -107.37   estimate D2E/DX2         !
 ! D80   D(58,18,20,61)   166.7089 -177.7383  -99.7997 estimate D2E/DX2         !
 ! D81   D(15,18,58,57)     0.2406    0.0017    0.1052 estimate D2E/DX2         !
 ! D82   D(15,18,58,59)   179.6465  179.9964 -179.6257 estimate D2E/DX2         !
 ! D83   D(20,18,58,57)  -179.3388  179.9635  179.7607 estimate D2E/DX2         !
 ! D84   D(20,18,58,59)     0.0672   -0.0418    0.0298 estimate D2E/DX2         !
 ! D85   D(18,20,24,22)    89.8872  118.348   -46.9348 estimate D2E/DX2         !
 ! D86   D(1,21,27,22)    172.2468  173.7347  176.964  estimate D2E/DX2         !
 ! D87   D(1,21,27,28)     -5.1196   -6.4186   -2.0847 estimate D2E/DX2         !
 ! D88   D(54,21,27,22)    -3.1496   -2.3232   -0.7414 estimate D2E/DX2         !
 ! D89   D(54,21,27,28)   179.484   177.5235 -179.79   estimate D2E/DX2         !
 ! D90   D(1,21,54,52)   -167.2013 -170.7064 -172.9049 estimate D2E/DX2         !
 ! D91   D(1,21,54,55)     11.8022    9.0522    6.903  estimate D2E/DX2         !
 ! D92   D(27,21,54,52)     7.8707    5.3464    4.8541 estimate D2E/DX2         !
 ! D93   D(27,21,54,55)  -173.1258 -174.895  -175.338  estimate D2E/DX2         !
 ! D94   D(24,22,23,52)  -178.9472 -178.8661 -178.9497 estimate D2E/DX2         !
 ! D95   D(24,22,23,53)     1.9052    1.5972    1.8437 estimate D2E/DX2         !
 ! D96   D(27,22,23,52)     3.7166    2.5283    2.6426 estimate D2E/DX2         !
 ! D97   D(27,22,23,53)  -175.4311 -177.0084 -176.5639 estimate D2E/DX2         !
 ! D98   D(23,22,24,20)  -125.2956 -167.1236 -114.2662 estimate D2E/DX2         !
 ! D99   D(27,22,24,20)    52.0311   11.4793   64.1416 estimate D2E/DX2         !
 ! D100  D(23,22,27,21)    -2.4918   -1.5128   -2.9271 estimate D2E/DX2         !
 ! D101  D(23,22,27,28)   174.7419  178.6454  176.0741 estimate D2E/DX2         !
 ! D102  D(24,22,27,21)  -179.8679  179.8569  178.6415 estimate D2E/DX2         !
 ! D103  D(24,22,27,28)    -2.6342    0.0151   -2.3573 estimate D2E/DX2         !
 ! D104  D(22,23,52,48)  -179.726  -179.5503 -179.0167 estimate D2E/DX2         !
 ! D105  D(22,23,52,54)     0.4615    0.1582    1.0323 estimate D2E/DX2         !
 ! D106  D(53,23,52,48)    -0.5774   -0.0113    0.1935 estimate D2E/DX2         !
 ! D107  D(53,23,52,54)   179.61    179.6972 -179.7574 estimate D2E/DX2         !
 ! D108  D(43,31,39,34)  -169.7291 -171.0588 -171.1073 estimate D2E/DX2         !
 ! D109  D(43,31,39,38)     8.5125    7.9929    8.0804 estimate D2E/DX2         !
 ! D110  D(62,31,39,34)  -177.8234 -178.5638   10.4416 estimate D2E/DX2         !
 ! D111  D(62,31,39,38)     0.4182    0.4878 -170.3707 estimate D2E/DX2         !
 ! D112  D(63,31,39,34)     9.1071    8.319  -178.7139 estimate D2E/DX2         !
 ! D113  D(63,31,39,38)  -172.6513 -172.6293    0.4738 estimate D2E/DX2         !
 ! D114  D(39,31,43,44)    -8.694    -8.0368   -8.1047 estimate D2E/DX2         !
 ! D115  D(39,31,43,48)   170.0579  171.0122  171.1092 estimate D2E/DX2         !
 ! D116  D(62,31,43,44)    -0.5845   -0.532   170.3468 estimate D2E/DX2         !
 ! D117  D(62,31,43,48)   178.1673  178.517   -10.4393 estimate D2E/DX2         !
 ! D118  D(63,31,43,44)   172.4656  172.5853   -0.4984 estimate D2E/DX2         !
 ! D119  D(63,31,43,48)    -8.7825   -8.3657  178.7155 estimate D2E/DX2         !
 ! D120  D(39,31,62,13)   -92.0649   86.7475   89.3766 estimate D2E/DX2         !
 ! D121  D(43,31,62,13)    95.7122  -86.0571  -89.1292 estimate D2E/DX2         !
 ! D122  D(44,32,38,37)   177.6434  178.0761  178.3863 estimate D2E/DX2         !
 ! D123  D(44,32,38,39)    -2.8661   -2.5547   -2.5202 estimate D2E/DX2         !
 ! D124  D(62,32,38,37)    -1.3331   -0.9271 -175.4289 estimate D2E/DX2         !
 ! D125  D(62,32,38,39)   178.1574  178.4421    3.6647 estimate D2E/DX2         !
 ! D126  D(63,32,38,37)  -176.4678 -176.3626   -0.8107 estimate D2E/DX2         !
 ! D127  D(63,32,38,39)     3.0227    3.0066  178.2828 estimate D2E/DX2         !
 ! D128  D(38,32,44,43)     2.6986    2.5098    2.496  estimate D2E/DX2         !
 ! D129  D(38,32,44,45)  -177.9551 -178.1172 -178.4259 estimate D2E/DX2         !
 ! D130  D(62,32,44,43)  -178.3235 -178.4869   -3.689  estimate D2E/DX2         !
 ! D131  D(62,32,44,45)     1.0228    0.8861  175.3891 estimate D2E/DX2         !
 ! D132  D(63,32,44,43)    -3.1888   -3.052  -178.3071 estimate D2E/DX2         !
 ! D133  D(63,32,44,45)   176.1576  176.3211    0.771  estimate D2E/DX2         !
 ! D134  D(9,33,34,35)     44.7463   51.0888   50.1007 estimate D2E/DX2         !
 ! D135  D(9,33,34,39)   -138.4226 -131.0271 -132.6936 estimate D2E/DX2         !
 ! D136  D(10,33,34,35)  -133.8213 -129.5527 -129.7941 estimate D2E/DX2         !
 ! D137  D(10,33,34,39)    43.0098   48.3314   47.4115 estimate D2E/DX2         !
 ! D138  D(33,34,35,36)   176.1314  176.8502  176.1599 estimate D2E/DX2         !
 ! D139  D(33,34,35,40)    -1.3201   -0.8529   -1.356  estimate D2E/DX2         !
 ! D140  D(39,34,35,36)    -0.7562   -1.0475   -1.0659 estimate D2E/DX2         !
 ! D141  D(39,34,35,40)  -178.2077 -178.7507 -178.5818 estimate D2E/DX2         !
 ! D142  D(33,34,39,31)     5.6536    5.0696    6.0886 estimate D2E/DX2         !
 ! D143  D(33,34,39,38)  -172.5719 -173.9738 -173.0931 estimate D2E/DX2         !
 ! D144  D(35,34,39,31)  -177.4689 -177.0086 -176.6552 estimate D2E/DX2         !
 ! D145  D(35,34,39,38)     4.3056    3.9479    4.1631 estimate D2E/DX2         !
 ! D146  D(34,35,36,37)    -2.3852   -1.7539   -1.9335 estimate D2E/DX2         !
 ! D147  D(34,35,36,41)   179.7961 -179.946   179.9868 estimate D2E/DX2         !
 ! D148  D(40,35,36,37)   175.0827  175.9639  175.5989 estimate D2E/DX2         !
 ! D149  D(40,35,36,41)    -2.736    -2.2281   -2.4808 estimate D2E/DX2         !
 ! D150  D(35,36,37,38)     1.8392    1.5673    1.7411 estimate D2E/DX2         !
 ! D151  D(35,36,37,42)  -177.4605 -177.994  -177.8964 estimate D2E/DX2         !
 ! D152  D(41,36,37,38)   179.6307  179.737   179.7978 estimate D2E/DX2         !
 ! D153  D(41,36,37,42)     0.331     0.1757    0.1604 estimate D2E/DX2         !
 ! D154  D(36,37,38,32)  -178.7507 -179.2627 -179.5119 estimate D2E/DX2         !
 ! D155  D(36,37,38,39)     1.7576    1.3667    1.3922 estimate D2E/DX2         !
 ! D156  D(42,37,38,32)     0.5647    0.3067    0.1322 estimate D2E/DX2         !
 ! D157  D(42,37,38,39)  -178.927  -179.0639 -178.9637 estimate D2E/DX2         !
 ! D158  D(32,38,39,31)    -2.6131   -2.5673   -2.6519 estimate D2E/DX2         !
 ! D159  D(32,38,39,34)   175.6876  176.5107  176.5569 estimate D2E/DX2         !
 ! D160  D(37,38,39,31)   176.891   176.824   176.4737 estimate D2E/DX2         !
 ! D161  D(37,38,39,34)    -4.8082   -4.0979   -4.3176 estimate D2E/DX2         !
 ! D162  D(31,43,44,32)     2.9381    2.6566    2.6995 estimate D2E/DX2         !
 ! D163  D(31,43,44,45)  -176.4272 -176.7383 -176.4112 estimate D2E/DX2         !
 ! D164  D(48,43,44,32)  -175.8531 -176.4191 -176.5346 estimate D2E/DX2         !
 ! D165  D(48,43,44,45)     4.7816    4.186     4.3546 estimate D2E/DX2         !
 ! D166  D(31,43,48,47)   176.7423  176.9457  176.5563 estimate D2E/DX2         !
 ! D167  D(31,43,48,52)    -5.9304   -5.2827   -6.1537 estimate D2E/DX2         !
 ! D168  D(44,43,48,47)    -4.5136   -4.0136   -4.2356 estimate D2E/DX2         !
 ! D169  D(44,43,48,52)   172.8137  173.758   173.0544 estimate D2E/DX2         !
 ! D170  D(32,44,45,46)   179.0638  179.2214  179.5474 estimate D2E/DX2         !
 ! D171  D(32,44,45,49)    -0.4265   -0.3466   -0.1163 estimate D2E/DX2         !
 ! D172  D(43,44,45,46)    -1.5901   -1.4041   -1.3722 estimate D2E/DX2         !
 ! D173  D(43,44,45,49)   178.9196  179.0279  178.9641 estimate D2E/DX2         !
 ! D174  D(44,45,46,47)    -1.9154   -1.6024   -1.7832 estimate D2E/DX2         !
 ! D175  D(44,45,46,50)  -179.9037 -179.7387 -179.8274 estimate D2E/DX2         !
 ! D176  D(49,45,46,47)   177.5644  177.9574  177.8742 estimate D2E/DX2         !
 ! D177  D(49,45,46,50)    -0.4239   -0.1789   -0.1699 estimate D2E/DX2         !
 ! D178  D(45,46,47,48)     2.214     1.8123    1.9391 estimate D2E/DX2         !
 ! D179  D(45,46,47,51)  -175.0431 -175.853  -175.6076 estimate D2E/DX2         !
 ! D180  D(50,46,47,48)  -179.7753  179.9713 -179.9938 estimate D2E/DX2         !
 ! D181  D(50,46,47,51)     2.9676    2.306     2.4595 estimate D2E/DX2         !
 ! D182  D(46,47,48,43)     1.0672    1.0412    1.1177 estimate D2E/DX2         !
 ! D183  D(46,47,48,52)  -176.2489 -176.7106 -176.1422 estimate D2E/DX2         !
 ! D184  D(51,47,48,43)   178.302   178.691   178.648  estimate D2E/DX2         !
 ! D185  D(51,47,48,52)     0.9859    0.9392    1.388  estimate D2E/DX2         !
 ! D186  D(43,48,52,23)   135.1312  131.8205  132.61   estimate D2E/DX2         !
 ! D187  D(43,48,52,54)   -45.0622  -47.8786  -47.4405 estimate D2E/DX2         !
 ! D188  D(47,48,52,23)   -47.5909  -50.4459  -50.15   estimate D2E/DX2         !
 ! D189  D(47,48,52,54)   132.2157  129.855   129.7995 estimate D2E/DX2         !
 ! D190  D(23,52,54,21)    -6.5707   -4.2914   -5.0121 estimate D2E/DX2         !
 ! D191  D(23,52,54,55)   174.4493  175.9547  175.1833 estimate D2E/DX2         !
 ! D192  D(48,52,54,21)   173.6117  175.4238  175.0354 estimate D2E/DX2         !
 ! D193  D(48,52,54,55)    -5.3682   -4.3301   -4.7691 estimate D2E/DX2         !
 ! D194  D(17,57,58,18)    -0.5996   -0.0068    0.5552 estimate D2E/DX2         !
 ! D195  D(17,57,58,59)   179.9895  179.9986 -179.7151 estimate D2E/DX2         !
 ! D196  D(60,57,58,18)   179.3485  179.991  -179.607  estimate D2E/DX2         !
 ! D197  D(60,57,58,59)    -0.0624   -0.0036    0.1226 estimate D2E/DX2         !
 --------------------------------------------------------------------------------
 Trust Radius=3.00D-01 FncErr=1.00D-07 GrdErr=1.00D-06 EigMax=2.50D+02 EigMin=1.00D-04
 Number of steps in this run=    378 maximum allowed number of steps=    378.
 Search for a saddle point of order  1.
 GradGradGradGradGradGradGradGradGradGradGradGradGradGradGradGradGradGrad

 Stoichiometry    C34H21BrMnN3O3
 Framework group  C1[X(C34H21BrMnN3O3)]
 Deg. of freedom   183
 Full point group                 C1      NOp   1
 Largest Abelian subgroup         C1      NOp   1
 Largest concise Abelian subgroup C1      NOp   1
                         Standard orientation:                         
 ---------------------------------------------------------------------
 Center     Atomic      Atomic             Coordinates (Angstroms)
 Number     Number       Type             X           Y           Z
 ---------------------------------------------------------------------
      1         25           0       -1.494280   -1.941093    0.048758
      2          6           0       -2.386769   -2.935455   -1.193506
      3          8           0       -2.888834   -3.592501   -1.984115
      4          6           0       -2.444629   -2.757959    1.397976
      5          8           0       -2.950608   -3.285706    2.277729
      6          6           0       -0.291645   -3.235309    0.177978
      7          7           0       -0.606000   -0.875766    1.532583
      8          6           0       -0.821772    0.647816    3.371457
      9          6           0        0.556362    0.854990    3.394726
     10          6           0        0.720335   -0.752446    1.642378
     11          1           0       -1.482517    1.167179    4.071277
     12          1           0        0.999206    1.564368    4.098734
     13          7           0       -1.851516    0.836569   -0.057772
     14          6           0       -2.012867    1.984911   -0.045155
     15          6           0       -2.291459    3.402455   -0.066644
     16          6           0       -1.277505    4.332812   -0.305933
     17          6           0       -1.586592    5.695142   -0.357106
     18          6           0       -3.604823    3.834304    0.137368
     19          1           0       -0.261137    3.982155   -0.460898
     20          1           0       -4.377646    3.088780    0.323148
     21          7           0       -0.565251   -1.013687   -1.477420
     22          6           0       -0.779067    0.441659   -3.371980
     23          6           0        0.600975    0.621591   -3.423825
     24          1           0       -1.439822    0.951949   -4.072689
     25          6           0       -1.363895   -0.200445    2.418941
     26          1           0       -2.446899   -0.322608    2.332446
     27          6           0       -1.321793   -0.358111   -2.375914
     28          1           0       -2.404889   -0.453454   -2.252833
     29          1           0       -0.803359    6.427872   -0.551281
     30          8           0        0.442757   -4.117502    0.294664
     31          6           0        2.915690    0.376703   -0.014662
     32          6           0        5.701054    0.254084    0.009595
     33          6           0        1.366632    0.138443    2.508032
     34          6           0        2.852232    0.271057    2.482631
     35          6           0        3.568434    0.277179    3.653585
     36          6           0        4.996873    0.320757    3.658179
     37          6           0        5.698690    0.309061    2.486429
     38          6           0        5.008962    0.292383    1.228730
     39          6           0        3.570120    0.326774    1.220623
     40          1           0        3.039758    0.205812    4.608656
     41          1           0        5.523996    0.327376    4.615997
     42          1           0        6.794071    0.300702    2.485630
     43          6           0        3.592188    0.219471   -1.230993
     44          6           0        5.030745    0.188796   -1.218434
     45          6           0        5.737830    0.106002   -2.466401
     46          6           0        5.052059    0.024703   -3.642840
     47          6           0        3.623229   -0.020631   -3.653567
     48          6           0        2.891358    0.060707   -2.493256
     49          1           0        6.833699    0.100963   -2.453281
     50          1           0        5.593304   -0.039868   -4.592214
     51          1           0        3.108965   -0.168157   -4.606767
     52          6           0        1.406649   -0.071859   -2.518248
     53          1           0        1.046679    1.305953   -4.152883
     54          6           0        0.758488   -0.921710   -1.612445
     55          1           0        1.358008   -1.546807   -0.953463
     56          1           0        1.324399   -1.396649    1.001821
     57          6           0       -2.892334    6.126894   -0.162132
     58          6           0       -3.898567    5.200654    0.090691
     59          1           0       -4.917236    5.547096    0.242193
     60          1           0       -3.130710    7.198334   -0.208287
     61         35           0       -4.381513   -1.014112   -0.106377
     62          1           0        6.796979    0.258706    0.017390
     63          1           0        1.836820    0.524849   -0.034069
 ---------------------------------------------------------------------
 Rotational constants (GHZ):           0.0902676           0.0575107           0.0521513
 General basis read from cards:  (5D, 7F)
 There are   802 symmetry adapted cartesian basis functions of A   symmetry.
 There are   751 symmetry adapted basis functions of A   symmetry.
   751 basis functions,  1339 primitive gaussians,   802 cartesian basis functions
   165 alpha electrons      165 beta electrons
       nuclear repulsion energy      6097.8064915562 Hartrees.
 NAtoms=   63 NActive=   63 NUniq=   63 SFac= 1.00D+00 NAtFMM=   60 NAOKFM=T Big=T
 Integral buffers will be    131072 words long.
 Raffenetti 2 integral format.
 Two-electron integral symmetry is turned on.
 Nuclear repulsion after empirical dispersion term =     6097.7405537036 Hartrees.
 ------------------------------------------------------------------------------
 Polarizable Continuum Model (PCM)
 =================================
 Model                : PCM.
 Atomic radii         : UFF (Universal Force Field).
 Polarization charges : Total charges.
 Charge compensation  : None.
 Solution method      : On-the-fly selection.
 Cavity type          : Scaled VdW (van der Waals Surface) (Alpha=1.100).
 Cavity algorithm     : GePol (No added spheres)
                        Default sphere list used, NSphG=   63.
                        Lebedev-Laikov grids with approx.  5.0 points / Ang**2.
                        Smoothing algorithm: York/Karplus (Gamma=1.0000).
                        Polarization charges: spherical gaussians, with
                                              point-specific exponents (IZeta= 3).
                        Self-potential: point-specific (ISelfS= 7).
                        Self-field    : sphere-specific E.n sum rule (ISelfD= 2).
 1st derivatives      : Analytical E(r).r(x)/FMM algorithm (CHGder, D1EAlg=3).
                        Cavity 1st derivative terms included.
 Solvent              : TetraHydroFuran, Eps=   7.425700 Eps(inf)=   1.974025
 ------------------------------------------------------------------------------
 One-electron integrals computed using PRISM.
 PrsmSu:  requested number of processors reduced to:  11 ShMem   1 Linda.
 NBasis=   751 RedAO= T EigKep=  2.31D-04  NBF=   751
 NBsUse=   751 1.00D-06 EigRej= -1.00D+00 NBFU=   751
 ExpMin= 3.93D-02 ExpMax= 2.77D+05 ExpMxC= 1.70D+04 IAcc=3 IRadAn=         5 AccDes= 0.00D+00
 Harris functional with IExCor= 4639 and IRadAn=       5 diagonalized for initial guess.
 HarFok:  IExCor= 4639 AccDes= 0.00D+00 IRadAn=         5 IDoV= 1 UseB2=F ITyADJ=14
 ICtDFT=  3500011 ScaDFX=  1.000000  1.000000  1.000000  1.000000
 FoFCou: FMM=F IPFlag=           0 FMFlag=      100000 FMFlg1=        2001
         NFxFlg=           0 DoJE=T BraDBF=F KetDBF=T FulRan=T
         wScrn=  0.000000 ICntrl=       500 IOpCl=  0 I1Cent=   200000004 NGrid=           0
         NMat0=    1 NMatS0=      1 NMatT0=    0 NMatD0=    1 NMtDS0=    0 NMtDT0=    0
 Petite list used in FoFCou.
 Requested convergence on RMS density matrix=1.00D-08 within 128 cycles.
 Requested convergence on MAX density matrix=1.00D-06.
 Requested convergence on             energy=1.00D-06.
 No special actions if energy rises.
 CoulSu:  requested number of processors reduced to:  10 ShMem   1 Linda.
 Inv3:  Mode=1 IEnd=    66920187.
 Iteration    1 A*A^-1 deviation from unit magnitude is 3.33D-15 for   1139.
 Iteration    1 A*A^-1 deviation from orthogonality  is 2.66D-15 for   3914    979.
 Iteration    1 A^-1*A deviation from unit magnitude is 3.33D-15 for   1139.
 Iteration    1 A^-1*A deviation from orthogonality  is 3.11D-15 for   3995    942.
 CoulSu:  requested number of processors reduced to:  10 ShMem   1 Linda.
 CoulSu:  requested number of processors reduced to:  10 ShMem   1 Linda.
 Error on total polarization charges =  0.01897
 SCF Done:  E(RwB97XD) =  -5421.43186442     A.U. after   19 cycles
            NFock= 19  Conv=0.88D-08     -V/T= 2.0041

 **********************************************************************

            Population analysis using the SCF density.

 **********************************************************************

 Orbital symmetries:
       Occupied  (A) (A) (A) (A) (A) (A) (A) (A) (A) (A) (A) (A)
                 (A) (A) (A) (A) (A) (A) (A) (A) (A) (A) (A) (A)
                 (A) (A) (A) (A) (A) (A) (A) (A) (A) (A) (A) (A)
                 (A) (A) (A) (A) (A) (A) (A) (A) (A) (A) (A) (A)
                 (A) (A) (A) (A) (A) (A) (A) (A) (A) (A) (A) (A)
                 (A) (A) (A) (A) (A) (A) (A) (A) (A) (A) (A) (A)
                 (A) (A) (A) (A) (A) (A) (A) (A) (A) (A) (A) (A)
                 (A) (A) (A) (A) (A) (A) (A) (A) (A) (A) (A) (A)
                 (A) (A) (A) (A) (A) (A) (A) (A) (A) (A) (A) (A)
                 (A) (A) (A) (A) (A) (A) (A) (A) (A) (A) (A) (A)
                 (A) (A) (A) (A) (A) (A) (A) (A) (A) (A) (A) (A)
                 (A) (A) (A) (A) (A) (A) (A) (A) (A) (A) (A) (A)
                 (A) (A) (A) (A) (A) (A) (A) (A) (A) (A) (A) (A)
                 (A) (A) (A) (A) (A) (A) (A) (A) (A)
       Virtual   (A) (A) (A) (A) (A) (A) (A) (A) (A) (A) (A) (A)
                 (A) (A) (A) (A) (A) (A) (A) (A) (A) (A) (A) (A)
                 (A) (A) (A) (A) (A) (A) (A) (A) (A) (A) (A) (A)
                 (A) (A) (A) (A) (A) (A) (A) (A) (A) (A) (A) (A)
                 (A) (A) (A) (A) (A) (A) (A) (A) (A) (A) (A) (A)
                 (A) (A) (A) (A) (A) (A) (A) (A) (A) (A) (A) (A)
                 (A) (A) (A) (A) (A) (A) (A) (A) (A) (A) (A) (A)
                 (A) (A) (A) (A) (A) (A) (A) (A) (A) (A) (A) (A)
                 (A) (A) (A) (A) (A) (A) (A) (A) (A) (A) (A) (A)
                 (A) (A) (A) (A) (A) (A) (A) (A) (A) (A) (A) (A)
                 (A) (A) (A) (A) (A) (A) (A) (A) (A) (A) (A) (A)
                 (A) (A) (A) (A) (A) (A) (A) (A) (A) (A) (A) (A)
                 (A) (A) (A) (A) (A) (A) (A) (A) (A) (A) (A) (A)
                 (A) (A) (A) (A) (A) (A) (A) (A) (A) (A) (A) (A)
                 (A) (A) (A) (A) (A) (A) (A) (A) (A) (A) (A) (A)
                 (A) (A) (A) (A) (A) (A) (A) (A) (A) (A) (A) (A)
                 (A) (A) (A) (A) (A) (A) (A) (A) (A) (A) (A) (A)
                 (A) (A) (A) (A) (A) (A) (A) (A) (A) (A) (A) (A)
                 (A) (A) (A) (A) (A) (A) (A) (A) (A) (A) (A) (A)
                 (A) (A) (A) (A) (A) (A) (A) (A) (A) (A) (A) (A)
                 (A) (A) (A) (A) (A) (A) (A) (A) (A) (A) (A) (A)
                 (A) (A) (A) (A) (A) (A) (A) (A) (A) (A) (A) (A)
                 (A) (A) (A) (A) (A) (A) (A) (A) (A) (A) (A) (A)
                 (A) (A) (A) (A) (A) (A) (A) (A) (A) (A) (A) (A)
                 (A) (A) (A) (A) (A) (A) (A) (A) (A) (A) (A) (A)
                 (A) (A) (A) (A) (A) (A) (A) (A) (A) (A) (A) (A)
                 (A) (A) (A) (A) (A) (A) (A) (A) (A) (A) (A) (A)
                 (A) (A) (A) (A) (A) (A) (A) (A) (A) (A) (A) (A)
                 (A) (A) (A) (A) (A) (A) (A) (A) (A) (A) (A) (A)
                 (A) (A) (A) (A) (A) (A) (A) (A) (A) (A) (A) (A)
                 (A) (A) (A) (A) (A) (A) (A) (A) (A) (A) (A) (A)
                 (A) (A) (A) (A) (A) (A) (A) (A) (A) (A) (A) (A)
                 (A) (A) (A) (A) (A) (A) (A) (A) (A) (A) (A) (A)
                 (A) (A) (A) (A) (A) (A) (A) (A) (A) (A) (A) (A)
                 (A) (A) (A) (A) (A) (A) (A) (A) (A) (A) (A) (A)
                 (A) (A) (A) (A) (A) (A) (A) (A) (A) (A) (A) (A)
                 (A) (A) (A) (A) (A) (A) (A) (A) (A) (A) (A) (A)
                 (A) (A) (A) (A) (A) (A) (A) (A) (A) (A) (A) (A)
                 (A) (A) (A) (A) (A) (A) (A) (A) (A) (A) (A) (A)
                 (A) (A) (A) (A) (A) (A) (A) (A) (A) (A) (A) (A)
                 (A) (A) (A) (A) (A) (A) (A) (A) (A) (A) (A) (A)
                 (A) (A) (A) (A) (A) (A) (A) (A) (A) (A) (A) (A)
                 (A) (A) (A) (A) (A) (A) (A) (A) (A) (A) (A) (A)
                 (A) (A) (A) (A) (A) (A) (A) (A) (A) (A) (A) (A)
                 (A) (A) (A) (A) (A) (A) (A) (A) (A) (A) (A) (A)
                 (A) (A) (A) (A) (A) (A) (A) (A) (A) (A) (A) (A)
                 (A) (A) (A) (A) (A) (A) (A) (A) (A) (A) (A) (A)
                 (A) (A) (A) (A) (A) (A) (A) (A) (A) (A) (A) (A)
                 (A) (A) (A) (A) (A) (A) (A) (A) (A) (A)
 The electronic state is 1-A.
 Alpha  occ. eigenvalues -- -482.97141-235.68916 -62.55157 -56.35755 -56.35700
 Alpha  occ. eigenvalues --  -56.35685 -27.45832 -23.51627 -23.51500 -23.51304
 Alpha  occ. eigenvalues --  -19.33548 -19.33102 -19.32862 -14.50064 -14.49958
 Alpha  occ. eigenvalues --  -14.45879 -10.41208 -10.40827 -10.40653 -10.36481
 Alpha  occ. eigenvalues --  -10.36440 -10.35945 -10.35743 -10.35591 -10.35382
 Alpha  occ. eigenvalues --  -10.34269 -10.34153 -10.34130 -10.34040 -10.33488
 Alpha  occ. eigenvalues --  -10.33452 -10.33220 -10.33199 -10.33193 -10.33067
 Alpha  occ. eigenvalues --  -10.32898 -10.32795 -10.32788 -10.32745 -10.32422
 Alpha  occ. eigenvalues --  -10.32242 -10.32189 -10.32171 -10.32161 -10.32006
 Alpha  occ. eigenvalues --  -10.31950 -10.31915 -10.31905 -10.31769 -10.31761
 Alpha  occ. eigenvalues --   -8.71907  -6.53721  -6.53535  -6.53481  -3.25293
 Alpha  occ. eigenvalues --   -2.64208  -2.64169  -2.64126  -2.63977  -2.63974
 Alpha  occ. eigenvalues --   -2.10976  -2.10523  -2.10187  -1.22498  -1.22095
 Alpha  occ. eigenvalues --   -1.21521  -1.08106  -1.07715  -1.01550  -0.99965
 Alpha  occ. eigenvalues --   -0.97741  -0.97265  -0.94073  -0.92861  -0.91104
 Alpha  occ. eigenvalues --   -0.90444  -0.89321  -0.88113  -0.87056  -0.86091
 Alpha  occ. eigenvalues --   -0.84945  -0.84670  -0.81713  -0.76830  -0.76346
 Alpha  occ. eigenvalues --   -0.75401  -0.75041  -0.74923  -0.74356  -0.74046
 Alpha  occ. eigenvalues --   -0.72086  -0.71976  -0.70059  -0.68689  -0.67584
 Alpha  occ. eigenvalues --   -0.65547  -0.64593  -0.64433  -0.64290  -0.63953
 Alpha  occ. eigenvalues --   -0.63871  -0.62357  -0.61689  -0.60498  -0.59634
 Alpha  occ. eigenvalues --   -0.59057  -0.57679  -0.57351  -0.57155  -0.57062
 Alpha  occ. eigenvalues --   -0.56262  -0.56107  -0.56002  -0.55578  -0.55331
 Alpha  occ. eigenvalues --   -0.55038  -0.54823  -0.54500  -0.54348  -0.54105
 Alpha  occ. eigenvalues --   -0.53484  -0.53142  -0.53011  -0.52673  -0.52294
 Alpha  occ. eigenvalues --   -0.52141  -0.51989  -0.50982  -0.50966  -0.50852
 Alpha  occ. eigenvalues --   -0.50283  -0.50115  -0.49830  -0.49170  -0.48373
 Alpha  occ. eigenvalues --   -0.47944  -0.47654  -0.47068  -0.46984  -0.45702
 Alpha  occ. eigenvalues --   -0.45648  -0.44817  -0.44576  -0.43550  -0.43427
 Alpha  occ. eigenvalues --   -0.42892  -0.41827  -0.41743  -0.41067  -0.40418
 Alpha  occ. eigenvalues --   -0.40003  -0.39208  -0.37428  -0.36033  -0.35365
 Alpha  occ. eigenvalues --   -0.35129  -0.33970  -0.33144  -0.33027  -0.32221
 Alpha  occ. eigenvalues --   -0.30852  -0.30410  -0.30012  -0.28893  -0.27804
 Alpha virt. eigenvalues --   -0.02889   0.00162   0.00507   0.00851   0.02149
 Alpha virt. eigenvalues --    0.02499   0.02516   0.03249   0.03937   0.05758
 Alpha virt. eigenvalues --    0.06429   0.07034   0.07728   0.08126   0.09256
 Alpha virt. eigenvalues --    0.09391   0.09703   0.10092   0.11612   0.11666
 Alpha virt. eigenvalues --    0.11982   0.12563   0.13444   0.13812   0.14461
 Alpha virt. eigenvalues --    0.14644   0.14846   0.15279   0.15483   0.15936
 Alpha virt. eigenvalues --    0.16354   0.16774   0.17304   0.17982   0.18834
 Alpha virt. eigenvalues --    0.19264   0.19701   0.19879   0.20624   0.20996
 Alpha virt. eigenvalues --    0.21160   0.21868   0.22166   0.22741   0.23015
 Alpha virt. eigenvalues --    0.23589   0.23628   0.23728   0.24771   0.25679
 Alpha virt. eigenvalues --    0.26742   0.26865   0.27553   0.28146   0.28920
 Alpha virt. eigenvalues --    0.29199   0.29972   0.30088   0.30864   0.31038
 Alpha virt. eigenvalues --    0.31237   0.31783   0.32492   0.32581   0.32879
 Alpha virt. eigenvalues --    0.33480   0.33673   0.33935   0.34043   0.34274
 Alpha virt. eigenvalues --    0.34508   0.35141   0.35393   0.36006   0.36320
 Alpha virt. eigenvalues --    0.36408   0.36720   0.36858   0.37968   0.38077
 Alpha virt. eigenvalues --    0.38407   0.38674   0.39026   0.39469   0.40152
 Alpha virt. eigenvalues --    0.40515   0.40789   0.41914   0.41974   0.42332
 Alpha virt. eigenvalues --    0.42441   0.43036   0.43460   0.43851   0.44762
 Alpha virt. eigenvalues --    0.44950   0.46139   0.46553   0.47110   0.47666
 Alpha virt. eigenvalues --    0.47801   0.48069   0.48738   0.48940   0.49491
 Alpha virt. eigenvalues --    0.50633   0.50894   0.51055   0.51291   0.51862
 Alpha virt. eigenvalues --    0.52224   0.52671   0.52836   0.53191   0.53400
 Alpha virt. eigenvalues --    0.53531   0.53727   0.54501   0.54555   0.54926
 Alpha virt. eigenvalues --    0.55525   0.55853   0.56257   0.56355   0.56517
 Alpha virt. eigenvalues --    0.56977   0.57296   0.58343   0.58721   0.59047
 Alpha virt. eigenvalues --    0.59656   0.59739   0.60512   0.60720   0.61021
 Alpha virt. eigenvalues --    0.61269   0.61528   0.61781   0.62334   0.62475
 Alpha virt. eigenvalues --    0.63533   0.63962   0.64288   0.64669   0.65419
 Alpha virt. eigenvalues --    0.65826   0.66548   0.66847   0.67035   0.67067
 Alpha virt. eigenvalues --    0.67497   0.68074   0.68167   0.68744   0.69017
 Alpha virt. eigenvalues --    0.69477   0.70397   0.70594   0.71140   0.71726
 Alpha virt. eigenvalues --    0.71853   0.72100   0.72224   0.72551   0.72702
 Alpha virt. eigenvalues --    0.73136   0.73599   0.73644   0.73807   0.74085
 Alpha virt. eigenvalues --    0.74486   0.74615   0.74981   0.75289   0.75615
 Alpha virt. eigenvalues --    0.75912   0.76012   0.76433   0.76626   0.77031
 Alpha virt. eigenvalues --    0.77359   0.77659   0.77763   0.78288   0.78566
 Alpha virt. eigenvalues --    0.79469   0.79692   0.80044   0.80230   0.80502
 Alpha virt. eigenvalues --    0.80878   0.81012   0.81534   0.81731   0.82356
 Alpha virt. eigenvalues --    0.82897   0.83256   0.83598   0.84183   0.84305
 Alpha virt. eigenvalues --    0.84492   0.85012   0.85481   0.85617   0.85814
 Alpha virt. eigenvalues --    0.86112   0.86732   0.87141   0.87295   0.87723
 Alpha virt. eigenvalues --    0.87921   0.88282   0.88373   0.88881   0.89060
 Alpha virt. eigenvalues --    0.89838   0.90292   0.90598   0.91060   0.91193
 Alpha virt. eigenvalues --    0.91926   0.92335   0.92662   0.93284   0.93658
 Alpha virt. eigenvalues --    0.94292   0.94503   0.95404   0.95916   0.96320
 Alpha virt. eigenvalues --    0.96860   0.97301   0.98203   0.98574   0.98858
 Alpha virt. eigenvalues --    1.00438   1.01563   1.02012   1.02296   1.03110
 Alpha virt. eigenvalues --    1.03883   1.04272   1.04809   1.05278   1.06897
 Alpha virt. eigenvalues --    1.07561   1.08485   1.09679   1.10441   1.11424
 Alpha virt. eigenvalues --    1.12434   1.13764   1.14106   1.14870   1.15118
 Alpha virt. eigenvalues --    1.15717   1.16332   1.16496   1.16913   1.17539
 Alpha virt. eigenvalues --    1.18699   1.19301   1.20500   1.21305   1.23467
 Alpha virt. eigenvalues --    1.23614   1.24451   1.24743   1.25326   1.25492
 Alpha virt. eigenvalues --    1.26048   1.26776   1.27259   1.28486   1.28662
 Alpha virt. eigenvalues --    1.29678   1.29815   1.30073   1.30260   1.30751
 Alpha virt. eigenvalues --    1.30808   1.30938   1.31173   1.31782   1.32901
 Alpha virt. eigenvalues --    1.33060   1.33763   1.34280   1.34769   1.35025
 Alpha virt. eigenvalues --    1.35431   1.36122   1.36290   1.36645   1.36819
 Alpha virt. eigenvalues --    1.36933   1.37318   1.39227   1.39722   1.39907
 Alpha virt. eigenvalues --    1.40512   1.40759   1.41530   1.42770   1.43403
 Alpha virt. eigenvalues --    1.44066   1.44768   1.44866   1.46289   1.46703
 Alpha virt. eigenvalues --    1.48241   1.49925   1.51622   1.52619   1.53230
 Alpha virt. eigenvalues --    1.54876   1.55511   1.55687   1.57696   1.59400
 Alpha virt. eigenvalues --    1.60410   1.60628   1.63141   1.64701   1.65088
 Alpha virt. eigenvalues --    1.67132   1.67611   1.67957   1.68117   1.69829
 Alpha virt. eigenvalues --    1.71160   1.71980   1.72240   1.72732   1.73035
 Alpha virt. eigenvalues --    1.73230   1.73615   1.73949   1.74129   1.74938
 Alpha virt. eigenvalues --    1.75212   1.75907   1.76318   1.76975   1.77379
 Alpha virt. eigenvalues --    1.77851   1.78125   1.78484   1.78716   1.79032
 Alpha virt. eigenvalues --    1.79322   1.79642   1.79853   1.80198   1.80801
 Alpha virt. eigenvalues --    1.81268   1.81406   1.81628   1.81897   1.82089
 Alpha virt. eigenvalues --    1.82361   1.82494   1.82707   1.82966   1.83302
 Alpha virt. eigenvalues --    1.83574   1.84604   1.84795   1.85517   1.85698
 Alpha virt. eigenvalues --    1.85948   1.86343   1.86794   1.87499   1.88640
 Alpha virt. eigenvalues --    1.88808   1.89040   1.89743   1.90422   1.90650
 Alpha virt. eigenvalues --    1.90992   1.91565   1.92005   1.92849   1.93306
 Alpha virt. eigenvalues --    1.93833   1.95610   1.96195   1.96280   1.98068
 Alpha virt. eigenvalues --    1.98365   1.98505   1.98917   1.99710   2.00669
 Alpha virt. eigenvalues --    2.00891   2.01105   2.02030   2.02558   2.02782
 Alpha virt. eigenvalues --    2.03315   2.03730   2.03927   2.04634   2.05149
 Alpha virt. eigenvalues --    2.05808   2.06032   2.06805   2.07287   2.08114
 Alpha virt. eigenvalues --    2.09075   2.09593   2.09851   2.10655   2.10810
 Alpha virt. eigenvalues --    2.11573   2.12092   2.13229   2.14023   2.15548
 Alpha virt. eigenvalues --    2.15728   2.17045   2.17153   2.17614   2.17978
 Alpha virt. eigenvalues --    2.18111   2.19109   2.19938   2.20730   2.20945
 Alpha virt. eigenvalues --    2.21098   2.21723   2.21911   2.22412   2.22944
 Alpha virt. eigenvalues --    2.24164   2.24601   2.24842   2.25791   2.26326
 Alpha virt. eigenvalues --    2.26822   2.29483   2.31016   2.31332   2.31864
 Alpha virt. eigenvalues --    2.32326   2.33062   2.33373   2.34311   2.35072
 Alpha virt. eigenvalues --    2.35365   2.37074   2.37500   2.37680   2.38010
 Alpha virt. eigenvalues --    2.38135   2.38868   2.39332   2.39562   2.39990
 Alpha virt. eigenvalues --    2.41569   2.42172   2.42781   2.42982   2.43848
 Alpha virt. eigenvalues --    2.44141   2.45231   2.46097   2.46641   2.47053
 Alpha virt. eigenvalues --    2.48321   2.48769   2.50428   2.50725   2.51162
 Alpha virt. eigenvalues --    2.54202   2.56003   2.57301   2.59497   2.60630
 Alpha virt. eigenvalues --    2.61119   2.61939   2.63048   2.64102   2.64788
 Alpha virt. eigenvalues --    2.66055   2.67012   2.67427   2.67751   2.67822
 Alpha virt. eigenvalues --    2.68378   2.68888   2.70657   2.70923   2.70997
 Alpha virt. eigenvalues --    2.71132   2.71358   2.71640   2.71750   2.72081
 Alpha virt. eigenvalues --    2.72196   2.72950   2.73159   2.74394   2.74941
 Alpha virt. eigenvalues --    2.75732   2.76977   2.79299   2.79818   2.80025
 Alpha virt. eigenvalues --    2.80894   2.81133   2.81673   2.81762   2.82085
 Alpha virt. eigenvalues --    2.84502   2.85524   2.86143   2.86860   2.87139
 Alpha virt. eigenvalues --    2.89900   2.90966   2.91535   2.95641   2.95997
 Alpha virt. eigenvalues --    2.96613   2.97934   2.98006   2.99357   3.00967
 Alpha virt. eigenvalues --    3.03344   3.05132   3.05869   3.06431   3.07669
 Alpha virt. eigenvalues --    3.08957   3.10384   3.10806   3.12545   3.12973
 Alpha virt. eigenvalues --    3.15813   3.16797   3.19352   3.20068   3.20503
 Alpha virt. eigenvalues --    3.21062   3.21289   3.23202   3.23328   3.25117
 Alpha virt. eigenvalues --    3.25367   3.30188   3.31333   3.32940   3.35149
 Alpha virt. eigenvalues --    3.38631   3.39252   3.42636   3.49843   3.50377
 Alpha virt. eigenvalues --    3.52189   3.53094   3.54251   3.57950   3.59617
 Alpha virt. eigenvalues --    3.62472   3.63624   3.64524   3.65041   3.65885
 Alpha virt. eigenvalues --    3.66434   3.67581   3.71751   3.72243   3.73250
 Alpha virt. eigenvalues --    3.76050   3.77140   3.77405   3.80603   3.81633
 Alpha virt. eigenvalues --    3.82057   3.91265   3.93455   3.99921   4.07692
 Alpha virt. eigenvalues --    4.13435
          Condensed to atoms (all electrons):
 Mulliken charges:
               1
     1  Mn  -0.740688
     2  C    0.373048
     3  O   -0.065659
     4  C    0.363404
     5  O   -0.061795
     6  C    0.318342
     7  N   -0.224080
     8  C   -0.034624
     9  C    0.030648
    10  C    0.095342
    11  H    0.060152
    12  H    0.052353
    13  N    0.013791
    14  C   -0.004021
    15  C   -0.147991
    16  C    0.024026
    17  C   -0.025588
    18  C    0.019704
    19  H    0.040334
    20  H    0.060190
    21  N   -0.225570
    22  C   -0.032519
    23  C    0.033305
    24  H    0.057279
    25  C    0.116503
    26  H    0.095278
    27  C    0.121923
    28  H    0.100116
    29  H    0.049250
    30  O   -0.088531
    31  C   -0.185536
    32  C   -0.084507
    33  C   -0.032136
    34  C    0.066824
    35  C   -0.067362
    36  C   -0.019190
    37  C   -0.020228
    38  C    0.016718
    39  C    0.077530
    40  H    0.035256
    41  H    0.043558
    42  H    0.032818
    43  C    0.073528
    44  C    0.016892
    45  C   -0.019715
    46  C   -0.020447
    47  C   -0.063953
    48  C    0.061426
    49  H    0.033041
    50  H    0.044234
    51  H    0.034612
    52  C   -0.039143
    53  H    0.052241
    54  C    0.091841
    55  H    0.066846
    56  H    0.061932
    57  C   -0.010391
    58  C   -0.023093
    59  H    0.049322
    60  H    0.055337
    61  Br  -0.774085
    62  H    0.021687
    63  H    0.050219
 Sum of Mulliken charges =  -0.00000
 Mulliken charges with hydrogens summed into heavy atoms:
               1
     1  Mn  -0.740688
     2  C    0.373048
     3  O   -0.065659
     4  C    0.363404
     5  O   -0.061795
     6  C    0.318342
     7  N   -0.224080
     8  C    0.025528
     9  C    0.083001
    10  C    0.157274
    13  N    0.013791
    14  C   -0.004021
    15  C   -0.147991
    16  C    0.064361
    17  C    0.023662
    18  C    0.079894
    21  N   -0.225570
    22  C    0.024761
    23  C    0.085546
    25  C    0.211781
    27  C    0.222039
    30  O   -0.088531
    31  C   -0.135317
    32  C   -0.062820
    33  C   -0.032136
    34  C    0.066824
    35  C   -0.032106
    36  C    0.024368
    37  C    0.012590
    38  C    0.016718
    39  C    0.077530
    43  C    0.073528
    44  C    0.016892
    45  C    0.013326
    46  C    0.023787
    47  C   -0.029341
    48  C    0.061426
    52  C   -0.039143
    54  C    0.158687
    57  C    0.044946
    58  C    0.026229
    61  Br  -0.774085
 Electronic spatial extent (au):  <R**2>=          22829.3942
 Charge=             -0.0000 electrons
 Dipole moment (field-independent basis, Debye):
    X=             14.7975    Y=             11.6116    Z=              0.2473  Tot=             18.8111
 Quadrupole moment (field-independent basis, Debye-Ang):
   XX=           -284.6936   YY=           -248.0882   ZZ=           -221.8381
   XY=            -33.0815   XZ=             -3.5375   YZ=              0.4545
 Traceless Quadrupole moment (field-independent basis, Debye-Ang):
   XX=            -33.1537   YY=              3.4518   ZZ=             29.7019
   XY=            -33.0815   XZ=             -3.5375   YZ=              0.4545
 Octapole moment (field-independent basis, Debye-Ang**2):
  XXX=            310.2624  YYY=            158.8665  ZZZ=              0.4871  XYY=           -141.7513
  XXY=            123.7987  XXZ=             15.2580  XZZ=             29.2727  YZZ=              8.4413
  YYZ=             -8.5393  XYZ=              2.7486
 Hexadecapole moment (field-independent basis, Debye-Ang**3):
 XXXX=         -15079.2693 YYYY=          -7103.8184 ZZZZ=          -5625.6614 XXXY=           -471.5459
 XXXZ=            -70.2787 YYYX=           -397.6346 YYYZ=            -84.9237 ZZZX=              5.7373
 ZZZY=             42.2427 XXYY=          -3922.5485 XXZZ=          -3277.1482 YYZZ=          -2606.7608
 XXYZ=             41.2665 YYXZ=            -23.9882 ZZXY=             47.1379
 N-N= 6.097740553704D+03 E-N=-2.502458101919D+04  KE= 5.399445959960D+03
 PrsmSu:  requested number of processors reduced to:  11 ShMem   1 Linda.
 D1PCM: PCM CHGder 1st derivatives, ID1Alg=3 FixD1E=F DoIter=F DoCFld=F I1PDM=0.
 CoulSu:  requested number of processors reduced to:  10 ShMem   1 Linda.
 CoulSu:  requested number of processors reduced to:  10 ShMem   1 Linda.
[...]
   D52       -3.04528  -0.00010   0.00000  -0.00525  -0.00532  -3.05060
   D53       -3.04128   0.00050   0.00000   0.00222   0.00222  -3.03906
   D54        0.07524   0.00025   0.00000   0.00135   0.00132   0.07655
   D55        2.48357   0.00090   0.00000   0.01758   0.01755   2.50112
   D56        0.25771  -0.00196   0.00000  -0.03199  -0.03122   0.22649
   D57       -2.97116  -0.00005   0.00000  -0.00528  -0.00462  -2.97579
   D58       -3.12176   0.00577   0.00000   0.02941   0.02946  -3.09230
   D59        3.11598  -0.00069   0.00000   0.00112   0.00097   3.11696
   D60       -0.00814  -0.00037   0.00000   0.00005  -0.00000  -0.00814
   D61        0.00134   0.00036   0.00000   0.00300   0.00300   0.00434
   D62       -3.12278   0.00067   0.00000   0.00192   0.00202  -3.12076
   D63        0.00708   0.00042   0.00000   0.00276   0.00288   0.00995
   D64       -3.12031   0.00054   0.00000   0.00106   0.00118  -3.11913
   D65        3.12246  -0.00060   0.00000   0.00090   0.00088   3.12334
   D66       -0.00493  -0.00048   0.00000  -0.00080  -0.00081  -0.00574
   D67       -3.13609  -0.00003   0.00000  -0.00197  -0.00194  -3.13803
   D68        0.00196   0.00005   0.00000  -0.00185  -0.00182   0.00014
   D69       -0.01201  -0.00030   0.00000  -0.00086  -0.00093  -0.01294
   D70        3.12603  -0.00023   0.00000  -0.00074  -0.00081   3.12523
   D71       -0.89687  -0.00195   0.00000   0.00320   0.00281  -0.89406
   D72        2.26233  -0.00163   0.00000   0.00220   0.00191   2.26424
   D73       -0.00166  -0.00034   0.00000  -0.00152  -0.00155  -0.00320
   D74       -3.13636  -0.00018   0.00000  -0.00156  -0.00157  -3.13793
   D75        3.13640  -0.00027   0.00000  -0.00142  -0.00144   3.13495
   D76        0.00170  -0.00011   0.00000  -0.00146  -0.00147   0.00023
   D77       -0.76505  -0.00073   0.00000  -0.00044  -0.00037  -0.76542
   D78       -0.22384   0.00059   0.00000   0.01321   0.01321  -0.21063
   D79        2.36213  -0.00086   0.00000   0.00121   0.00129   2.36342
   D80        2.90335   0.00047   0.00000   0.01485   0.01486   2.91821
   D81        0.00527   0.00017   0.00000  -0.00264  -0.00261   0.00266
   D82        3.13748   0.00016   0.00000   0.00174   0.00173   3.13921
   D83       -3.12178   0.00029   0.00000  -0.00437  -0.00434  -3.12612
   D84        0.01043   0.00028   0.00000   0.00000   0.00000   0.01043
   D85        1.66610  -0.00053   0.00000  -0.02198  -0.02216   1.64394
   D86        3.00726  -0.00120   0.00000  -0.01090  -0.01097   2.99629
   D87       -0.09403  -0.00124   0.00000  -0.01400  -0.01399  -0.10802
   D88       -0.05560  -0.00058   0.00000  -0.00279  -0.00291  -0.05851
   D89        3.12629  -0.00062   0.00000  -0.00589  -0.00592   3.12037
   D90       -2.93457   0.00140   0.00000   0.01772   0.01775  -2.91682
   D91        0.19866   0.00022   0.00000   0.00747   0.00751   0.20617
   D92        0.12524   0.00089   0.00000   0.00878   0.00880   0.13404
   D93       -3.02471  -0.00029   0.00000  -0.00148  -0.00145  -3.02616
   D94       -3.12814   0.00020   0.00000   0.00564   0.00563  -3.12251
   D95        0.02816  -0.00006   0.00000   0.00183   0.00175   0.02991
   D96        0.05577   0.00067   0.00000   0.00458   0.00463   0.06041
   D97       -3.07111   0.00041   0.00000   0.00077   0.00076  -3.07035
   D98       -2.32833  -0.00019   0.00000   0.03848   0.03851  -2.28982
   D99        0.77068  -0.00058   0.00000   0.03960   0.03957   0.81025
   D100      -0.03220  -0.00030   0.00000  -0.00394  -0.00388  -0.03608
   D101       3.06723  -0.00022   0.00000  -0.00058  -0.00062   3.06661
   D102      -3.13226   0.00014   0.00000  -0.00486  -0.00476  -3.13702
   D103      -0.03283   0.00021   0.00000  -0.00150  -0.00149  -0.03433
   D104      -3.13662   0.00040   0.00000   0.00130   0.00117  -3.13545
   D105       0.00521  -0.00007   0.00000   0.00128   0.00120   0.00640
   D106      -0.00970   0.00067   0.00000   0.00511   0.00505  -0.00465
   D107       3.13213   0.00020   0.00000   0.00510   0.00507   3.13720
   D108      -2.93352  -0.00062   0.00000  -0.01230  -0.01224  -2.94575
   D109       0.14392   0.00007   0.00000   0.00418   0.00420   0.14812
   D110      -3.05528  -0.00071   0.00000  -0.01935  -0.01939  -3.07467
   D111       0.02216  -0.00001   0.00000  -0.00286  -0.00295   0.01921
   D112       0.13868   0.00060   0.00000   0.00926   0.00924   0.14791
   D113      -3.06707   0.00130   0.00000   0.02574   0.02567  -3.04139
   D114      -0.14869   0.00037   0.00000  -0.00104  -0.00105  -0.14974
   D115       2.98768   0.00007   0.00000  -0.00855  -0.00865   2.97903
   D116      -0.02655   0.00045   0.00000   0.00593   0.00604  -0.02051
   D117       3.10982   0.00015   0.00000  -0.00158  -0.00156   3.10826
   D118       3.06212  -0.00083   0.00000  -0.02245  -0.02240   3.03971
   D119      -0.08470  -0.00113   0.00000  -0.02996  -0.03001  -0.11470
   D120      -1.39920  -0.00279   0.00000  -0.05501  -0.05500  -1.45420
   D121       1.86210  -0.00294   0.00000  -0.04953  -0.04950   1.81260
   D122       3.08805   0.00058   0.00000   0.00847   0.00843   3.09648
   D123      -0.04724   0.00043   0.00000   0.00350   0.00350  -0.04374
   D124       0.01652  -0.00059   0.00000  -0.01259  -0.01260   0.00391
   D125      -3.11877  -0.00074   0.00000  -0.01756  -0.01754  -3.13631
   D126      -3.11109   0.00083   0.00000   0.01416   0.01422  -3.09687
   D127       0.03680   0.00068   0.00000   0.00918   0.00929   0.04610
   D128       0.04295  -0.00006   0.00000  -0.00055  -0.00055   0.04240
   D129      -3.10620  -0.00014   0.00000  -0.00169  -0.00165  -3.10785
   D130       3.11465   0.00113   0.00000   0.02049   0.02048   3.13513
   D131      -0.03450   0.00105   0.00000   0.01935   0.01937  -0.01513
   D132      -0.04119  -0.00027   0.00000  -0.00617  -0.00626  -0.04745
   D133       3.09285  -0.00035   0.00000  -0.00730  -0.00737   3.08548
   D134       0.77017   0.00059   0.00000   0.01059   0.01056   0.78073
   D135      -2.43879   0.00105   0.00000   0.01869   0.01864  -2.42016
   D136      -2.34473   0.00083   0.00000   0.01142   0.01142  -2.33330
   D137       0.72950   0.00129   0.00000   0.01952   0.01950   0.74900
   D138       3.06129   0.00015   0.00000   0.00447   0.00449   3.06578
   D139      -0.03472   0.00038   0.00000   0.00699   0.00699  -0.02773
   D140      -0.01429  -0.00030   0.00000  -0.00337  -0.00336  -0.01765
   D141      -3.11031  -0.00006   0.00000  -0.00085  -0.00085  -3.11116
   D142       0.09060   0.00050   0.00000   0.00605   0.00604   0.09664
   D143      -2.98698  -0.00014   0.00000  -0.01015  -0.01017  -2.99715
   D144      -3.11777   0.00084   0.00000   0.01393   0.01394  -3.10383
   D145       0.08784   0.00019   0.00000  -0.00227  -0.00227   0.08556
   D146      -0.04934   0.00031   0.00000   0.00564   0.00563  -0.04371
   D147       3.13849   0.00013   0.00000   0.00127   0.00125   3.13974
   D148       3.04702   0.00009   0.00000   0.00319   0.00319   3.05021
   D149      -0.04834  -0.00010   0.00000  -0.00119  -0.00119  -0.04953
   D150       0.03557   0.00005   0.00000  -0.00133  -0.00135   0.03422
   D151      -3.08629  -0.00030   0.00000  -0.00667  -0.00668  -3.09296
   D152       3.13034   0.00023   0.00000   0.00307   0.00305   3.13340
   D153       0.00848  -0.00012   0.00000  -0.00227  -0.00227   0.00621
   D154      -3.09580  -0.00036   0.00000  -0.00935  -0.00934  -3.10515
   D155       0.03956  -0.00022   0.00000  -0.00448  -0.00448   0.03508
   D156       0.02648  -0.00003   0.00000  -0.00414  -0.00414   0.02233
   D157      -3.12135   0.00011   0.00000   0.00073   0.00072  -3.12063
   D158      -0.04484  -0.00044   0.00000  -0.00487  -0.00483  -0.04968
   D159       3.03507   0.00025   0.00000   0.01108   0.01102   3.04609
   D160       3.10293  -0.00058   0.00000  -0.00976  -0.00967   3.09326
   D161      -0.10035   0.00011   0.00000   0.00619   0.00619  -0.09416
   D162       0.05373  -0.00047   0.00000  -0.00132  -0.00134   0.05239
   D163      -3.08051  -0.00038   0.00000  -0.00021  -0.00025  -3.08076
   D164      -3.08278  -0.00020   0.00000   0.00595   0.00595  -3.07683
   D165       0.06617  -0.00011   0.00000   0.00706   0.00703   0.07320
   D166       3.07844   0.00060   0.00000   0.00270   0.00287   3.08131
   D167      -0.09565   0.00045   0.00000  -0.00327  -0.00316  -0.09881
   D168      -0.06836   0.00030   0.00000  -0.00480  -0.00475  -0.07312
   D169       3.04073   0.00015   0.00000  -0.01077  -0.01079   3.02995
   D170       3.13249  -0.00014   0.00000  -0.00362  -0.00367   3.12882
   D171      -0.00595   0.00001   0.00000  -0.00138  -0.00140  -0.00735
   D172      -0.01657  -0.00022   0.00000  -0.00480  -0.00482  -0.02139
   D173       3.12817  -0.00008   0.00000  -0.00255  -0.00255   3.12561
   D174      -0.03173   0.00017   0.00000  -0.00012  -0.00012  -0.03185
   D175       3.13955   0.00015   0.00000   0.00278   0.00278  -3.14085
   D176       3.10665   0.00002   0.00000  -0.00241  -0.00243   3.10422
   D177      -0.00526   0.00000   0.00000   0.00049   0.00048  -0.00478
   D178       0.02995   0.00003   0.00000   0.00247   0.00248   0.03243
   D179      -3.06538  -0.00023   0.00000   0.00170   0.00169  -3.06368
   D180      -3.14097   0.00005   0.00000  -0.00036  -0.00036  -3.14133
   D181       0.04688  -0.00021   0.00000  -0.00113  -0.00114   0.04574
   D182       0.02115  -0.00031   0.00000   0.00000  -0.00004   0.02112
   D183      -3.08797  -0.00015   0.00000   0.00589   0.00589  -3.08208
   D184       3.11613  -0.00005   0.00000   0.00078   0.00075   3.11689
   D185       0.00701   0.00012   0.00000   0.00666   0.00668   0.01368
   D186       2.32015   0.00051   0.00000   0.00428   0.00451   2.32466
   D187      -0.82169   0.00099   0.00000   0.00430   0.00449  -0.81720
   D188      -0.85439   0.00041   0.00000  -0.00162  -0.00141  -0.85581
   D189       2.28695   0.00090   0.00000  -0.00160  -0.00144   2.28552
   D190      -0.09987  -0.00082   0.00000  -0.00860  -0.00856  -0.10844
   D191       3.05027   0.00039   0.00000   0.00188   0.00189   3.05216
   D192       3.04195  -0.00127   0.00000  -0.00862  -0.00854   3.03341
   D193      -0.09110  -0.00007   0.00000   0.00186   0.00192  -0.08918
   D194      -0.00197   0.00023   0.00000   0.00376   0.00376   0.00179
   D195      -3.13420   0.00025   0.00000  -0.00055  -0.00054  -3.13474
   D196       3.13273   0.00006   0.00000   0.00380   0.00379   3.13652
   D197       0.00050   0.00009   0.00000  -0.00050  -0.00051  -0.00002
         Item               Value     Threshold  Converged?
 Maximum Force            0.025698     0.000450     NO 
 RMS     Force            0.002936     0.000300     NO 
 Maximum Displacement     0.267548     0.001800     NO 
 RMS     Displacement     0.054039     0.001200     NO 
 Predicted change in Energy=-6.973889D-03
 GradGradGradGradGradGradGradGradGradGradGradGradGradGradGradGradGradGrad

 Stoichiometry    C34H21BrMnN3O3
 Framework group  C1[X(C34H21BrMnN3O3)]
 Deg. of freedom   183
 Full point group                 C1      NOp   1
 Largest Abelian subgroup         C1      NOp   1
 Largest concise Abelian subgroup C1      NOp   1
                         Standard orientation:                         
 ---------------------------------------------------------------------
 Center     Atomic      Atomic             Coordinates (Angstroms)
 Number     Number       Type             X           Y           Z
 ---------------------------------------------------------------------
      1         25           0       -1.344607   -1.957510    0.207724
      2          6           0       -2.202601   -3.075826   -0.967610
      3          8           0       -2.666393   -3.824684   -1.696295
      4          6           0       -2.274465   -2.691209    1.622281
      5          8           0       -2.772919   -3.214772    2.507139
      6          6           0       -0.096143   -3.204403    0.440741
      7          7           0       -0.454254   -0.677280    1.635649
      8          6           0       -0.718567    1.031431    3.301780
      9          6           0        0.651104    1.285677    3.296568
     10          6           0        0.868537   -0.500711    1.730324
     11          1           0       -1.399465    1.585814    3.953375
     12          1           0        1.070545    2.080296    3.917624
     13          7           0       -2.035227    0.729341   -0.165549
     14          6           0       -2.319432    1.853328   -0.211756
     15          6           0       -2.756328    3.219576   -0.344566
     16          6           0       -1.846868    4.243790   -0.663060
     17          6           0       -2.316019    5.545147   -0.810921
     18          6           0       -4.117659    3.500318   -0.182640
     19          1           0       -0.789489    4.017139   -0.807471
     20          1           0       -4.802159    2.684537    0.047020
     21          7           0       -0.396628   -1.122064   -1.452539
     22          6           0       -0.595188    0.159869   -3.465826
     23          6           0        0.784373    0.353087   -3.504545
     24          1           0       -1.248960    0.597721   -4.221737
     25          6           0       -1.231653    0.071538    2.441494
     26          1           0       -2.308779   -0.091989    2.369893
     27          6           0       -1.145919   -0.561555   -2.419076
     28          1           0       -2.227477   -0.671706   -2.321767
     29          1           0       -1.618505    6.346096   -1.061295
     30          8           0        0.710748   -4.009560    0.597545
     31          6           0        3.032038    0.516399   -0.060968
     32          6           0        5.835895    0.467929    0.001901
     33          6           0        1.483931    0.507476    2.487489
     34          6           0        2.962336    0.693692    2.437254
     35          6           0        3.669756    0.854915    3.602639
     36          6           0        5.091424    0.944613    3.609240
     37          6           0        5.798337    0.820714    2.448679
     38          6           0        5.122878    0.640214    1.198260
     39          6           0        3.682067    0.634742    1.175399
     40          1           0        3.138720    0.871451    4.557524
     41          1           0        5.610394    1.074400    4.561178
     42          1           0        6.890959    0.843652    2.455388
     43          6           0        3.733144    0.229979   -1.240601
     44          6           0        5.172405    0.238172   -1.211144
     45          6           0        5.893462    0.020512   -2.430646
     46          6           0        5.228888   -0.216181   -3.598535
     47          6           0        3.806038   -0.289770   -3.620274
     48          6           0        3.059685   -0.089594   -2.485965
     49          1           0        6.985937    0.042882   -2.405036
     50          1           0        5.782958   -0.382130   -4.525053
     51          1           0        3.306372   -0.553450   -4.555553
     52          6           0        1.581859   -0.247880   -2.526186
     53          1           0        1.237721    0.973315   -4.281410
     54          6           0        0.928490   -1.021483   -1.563843
     55          1           0        1.523344   -1.572892   -0.837064
     56          1           0        1.492272   -1.189250    1.163272
     57          6           0       -3.672513    5.826916   -0.644395
     58          6           0       -4.571525    4.808086   -0.332246
     59          1           0       -5.631702    5.031956   -0.209335
     60          1           0       -4.033860    6.851309   -0.765614
     61         35           0       -4.609767   -1.263102    0.040186
     62          1           0        6.922034    0.467253    0.020824
     63          1           0        1.956823    0.605008   -0.099887
 ---------------------------------------------------------------------
 Rotational constants (GHZ):           0.0911168           0.0537547           0.0494224
 Basis read from rwf:  (5D, 7F)
 There are   802 symmetry adapted cartesian basis functions of A   symmetry.
 There are   751 symmetry adapted basis functions of A   symmetry.
   751 basis functions,  1339 primitive gaussians,   802 cartesian basis functions
   165 alpha electrons      165 beta electrons
       nuclear repulsion energy      5995.3167605330 Hartrees.
 NAtoms=   63 NActive=   63 NUniq=   63 SFac= 1.00D+00 NAtFMM=   60 NAOKFM=T Big=T
 Integral buffers will be    131072 words long.
 Raffenetti 2 integral format.
 Two-electron integral symmetry is turned on.
 Nuclear repulsion after empirical dispersion term =     5995.2520786801 Hartrees.
 ------------------------------------------------------------------------------
 Polarizable Continuum Model (PCM)
 =================================
 Model                : PCM.
 Atomic radii         : UFF (Universal Force Field).
 Polarization charges : Total charges.
 Charge compensation  : None.
 Solution method      : On-the-fly selection.
 Cavity type          : Scaled VdW (van der Waals Surface) (Alpha=1.100).
 Cavity algorithm     : GePol (No added spheres)
                        Default sphere list used, NSphG=   63.
                        Lebedev-Laikov grids with approx.  5.0 points / Ang**2.
                        Smoothing algorithm: York/Karplus (Gamma=1.0000).
                        Polarization charges: spherical gaussians, with
                                              point-specific exponents (IZeta= 3).
                        Self-potential: point-specific (ISelfS= 7).
                        Self-field    : sphere-specific E.n sum rule (ISelfD= 2).
 1st derivatives      : Analytical E(r).r(x)/FMM algorithm (CHGder, D1EAlg=3).
                        Cavity 1st derivative terms included.
 Solvent              : TetraHydroFuran, Eps=   7.425700 Eps(inf)=   1.974025
 ------------------------------------------------------------------------------
 One-electron integrals computed using PRISM.
 PrsmSu:  requested number of processors reduced to:  11 ShMem   1 Linda.
 NBasis=   751 RedAO= T EigKep=  2.29D-04  NBF=   751
 NBsUse=   751 1.00D-06 EigRej= -1.00D+00 NBFU=   751
 Initial guess from the checkpoint file:  "checkpoint.chk"
 B after Tr=    -0.000000    0.000000    0.000000
         Rot=    0.999387   -0.033726    0.000474    0.009432 Ang=  -4.01 deg.
 ExpMin= 3.93D-02 ExpMax= 2.77D+05 ExpMxC= 1.70D+04 IAcc=3 IRadAn=         5 AccDes= 0.00D+00
 Harris functional with IExCor= 4639 and IRadAn=       5 diagonalized for initial guess.
 HarFok:  IExCor= 4639 AccDes= 0.00D+00 IRadAn=         5 IDoV= 1 UseB2=F ITyADJ=14
 ICtDFT=  3500011 ScaDFX=  1.000000  1.000000  1.000000  1.000000
 FoFCou: FMM=F IPFlag=           0 FMFlag=      100000 FMFlg1=        2001
         NFxFlg=           0 DoJE=T BraDBF=F KetDBF=T FulRan=T
         wScrn=  0.000000 ICntrl=       500 IOpCl=  0 I1Cent=   200000004 NGrid=           0
         NMat0=    1 NMatS0=      1 NMatT0=    0 NMatD0=    1 NMtDS0=    0 NMtDT0=    0
 Petite list used in FoFCou.
 Requested convergence on RMS density matrix=1.00D-08 within 128 cycles.
 Requested convergence on MAX density matrix=1.00D-06.
 Requested convergence on             energy=1.00D-06.
 No special actions if energy rises.
 CoulSu:  requested number of processors reduced to:   9 ShMem   1 Linda.
 Inv3:  Mode=1 IEnd=    69697200.
 Iteration    1 A*A^-1 deviation from unit magnitude is 3.33D-15 for    412.
 Iteration    1 A*A^-1 deviation from orthogonality  is 2.66D-15 for   3886    567.
 Iteration    1 A^-1*A deviation from unit magnitude is 3.33D-15 for   1643.
 Iteration    1 A^-1*A deviation from orthogonality  is 3.22D-15 for   4008   3984.
 CoulSu:  requested number of processors reduced to:   9 ShMem   1 Linda.
 CoulSu:  requested number of processors reduced to:   9 ShMem   1 Linda.
