 Entering Gaussian System, Link 0=g16
 Initial command:
 /home1/apps/gaussian/16rA.03/g16/l1.exe "/tmp/Gau-80391.inp" -scrdir="/tmp/"
 Entering Link 1 = /home1/apps/gaussian/16rA.03/g16/l1.exe PID=     80393.
  
 Copyright (c) 1988,1990,1992,1993,1995,1998,2003,2009,2016,
            Gaussian, Inc.  All Rights Reserved.
  
 This is part of the Gaussian(R) 16 program.  It is based on
 the Gaussian(R) 09 system (copyright 2009, Gaussian, Inc.),
 the Gaussian(R) 03 system (copyright 2003, Gaussian, Inc.),
 the Gaussian(R) 98 system (copyright 1998, Gaussian, Inc.),
 the Gaussian(R) 94 system (copyright 1995, Gaussian, Inc.),
 the Gaussian 92(TM) system (copyright 1992, Gaussian, Inc.),
 the Gaussian 90(TM) system (copyright 1990, Gaussian, Inc.),
 the Gaussian 88(TM) system (copyright 1988, Gaussian, Inc.),
 the Gaussian 86(TM) system (copyright 1986, Carnegie Mellon
 University), and the Gaussian 82(TM) system (copyright 1983,
 Carnegie Mellon University). Gaussian is a federally registered
 trademark of Gaussian, Inc.
  
 This software contains proprietary and confidential information,
 including trade secrets, belonging to Gaussian, Inc.
  
 This software is provided under written license and may be
 used, copied, transmitted, or stored only in accord with that
 written license.
  
 The following legend is applicable only to US Government
 contracts under FAR:
  
                    RESTRICTED RIGHTS LEGEND
  
 Use, reproduction and disclosure by the US Government is
 subject to restrictions as set forth in subparagraphs (a)
 and (c) of the Commercial Computer Software - Restricted
 Rights clause in FAR 52.227-19.
  
 Gaussian, Inc.
 340 Quinnipiac St., Bldg. 40, Wallingford CT 06492
  
  
 ---------------------------------------------------------------
 Warning -- This program may not be used in any manner that
 competes with the business of Gaussian, Inc. or will provide
 assistance to any competitor of Gaussian, Inc.  The licensee
 of this program is prohibited from giving any competitor of
 Gaussian, Inc. access to this program.  By using this program,
 the user acknowledges that Gaussian, Inc. is engaged in the
 business of creating and licensing software in the field of
 computational chemistry and represents and warrants to the
 licensee that it is not a competitor of Gaussian, Inc. and that
 it will not use this program in any manner prohibited above.
 ---------------------------------------------------------------
  

 Cite this work as:
 Gaussian 16, Revision A.03,
 M. J. Frisch, G. W. Trucks, H. B. Schlegel, G. E. Scuseria, 
 M. A. Robb, J. R. Cheeseman, G. Scalmani, V. Barone, 
 G. A. Petersson, H. Nakatsuji, X. Li, M. Caricato, A. V. Marenich, 
 J. Bloino, B. G. Janesko, R. Gomperts, B. Mennucci, H. P. Hratchian, 
 J. V. Ortiz, A. F. Izmaylov, J. L. Sonnenberg, D. Williams-Young, 
 F. Ding, F. Lipparini, F. Egidi, J. Goings, B. Peng, A. Petrone, 
 T. Henderson, D. Ranasinghe, V. G. Zakrzewski, J. Gao, N. Rega, 
 G. Zheng, W. Liang, M. Hada, M. Ehara, K. Toyota, R. Fukuda, 
 J. Hasegawa, M. Ishida, T. Nakajima, Y. Honda, O. Kitao, H. Nakai, 
 T. Vreven, K. Throssell, J. A. Montgomery, Jr., J. E. Peralta, 
 F. Ogliaro, M. J. Bearpark, J. J. Heyd, E. N. Brothers, K. N. Kudin, 
 V. N. Staroverov, T. A. Keith, R. Kobayashi, J. Normand, 
 K. Raghavachari, A. P. Rendell, J. C. Burant, S. S. Iyengar, 
 J. Tomasi, M. Cossi, J. M. Millam, M. Klene, C. Adamo, R. Cammi, 
 J. W. Ochterski, R. L. Martin, K. Morokuma, O. Farkas, 
 J. B. Foresman, and D. J. Fox, Gaussian, Inc., Wallingford CT, 2016.
 
 ******************************************
 Gaussian 16:  ES64L-G16RevA.03 25-Dec-2016
                18-Mar-2023 
 ******************************************
 %NProcShared=12
 Will use up to   12 processors via shared memory.
 %Chk=checkpoint.chk
 -------------------------------------------------------
 # wB97XD Gen SCRF=(Solvent=TetraHydroFuran) Opt=Restart
 -------------------------------------------------------
 1/18=20,19=15,26=3,35=1/3(2);
 2/9=110/2;
 99//99;
 2/9=110/2;
 3/5=7,6=1,11=2,25=1,30=1,70=2205,71=1,72=20,74=-58,82=7/1,2,3;
 4/5=5,16=3,69=1/1;
 5/5=2,38=5,53=20/2;
 7//1,2,3,16;
 1/18=20,19=15,26=3/3(-5);
 2/9=110/2;
 6/7=2,8=2,9=2,10=2,19=2,28=1/1;
 99/9=1/99;

 GradGradGradGradGradGradGradGradGradGradGradGradGradGradGradGradGradGrad
 Berny optimization.
 Restoring state from the checkpoint file "checkpoint.chk".
 ONIOM results not found on unit 2.
 Title:  Thian Prod Optimization
 Route:  # wB97XD Gen SCRF=(Solvent=TetraHydroFuran) Opt
 Using GEDIIS/GDIIS optimizer.
 FormGI is forming the generalized inverse of G from B-inverse, IUseBI=4.
 Internal  Forces:  Max     0.000062193 RMS     0.000007517
 Search for a local minimum.
 Step number  69 out of a maximum of  366
 All quantities printed in internal units (Hartrees-Bohrs-Radians)
 Mixed Optimization -- En-DIIS/RFO-DIIS
 Swapping is turned off.
 Update second derivatives using D2CorX and points   40   41   42   43   44
                                                     45   46   47   48   49
                                                     50   51   52   53   54
                                                     55   56   57   58   59
                                                     60   61   62   63   64
                                                     65   66   67   68   69
 DE=  1.48D-06 DEPred=-7.15D-07 R=-2.06D+00
 Trust test=-2.06D+00 RLast= 2.67D-01 DXMaxT set to 5.00D-02
 ITU= -1  0 -1 -1  0 -1  0  0  0 -1  0  0 -1  0  0 -1  0 -1  0  0
 ITU= -1  0  0 -1 -1  0  0  0 -1  0  0  0 -1  0  0  0  0  0  0  0
 ITU=  0  0  0  0  1  1  1  1  1  1  1  1  0  1  1  1 -1 -1  1  0
 ITU=  0  0 -1  0 -1  0 -1 -1  0
     Eigenvalues ---    0.00002   0.00068   0.00133   0.00236   0.00389
     Eigenvalues ---    0.00490   0.00822   0.01092   0.01265   0.01319
     Eigenvalues ---    0.01486   0.01669   0.01687   0.01731   0.01748
     Eigenvalues ---    0.01815   0.01868   0.01932   0.01950   0.01983
     Eigenvalues ---    0.02056   0.02080   0.02101   0.02124   0.02136
     Eigenvalues ---    0.02143   0.02148   0.02154   0.02159   0.02161
     Eigenvalues ---    0.02167   0.02169   0.02170   0.02173   0.02177
     Eigenvalues ---    0.02178   0.02181   0.02185   0.02198   0.02206
     Eigenvalues ---    0.02222   0.02229   0.02242   0.02265   0.02307
     Eigenvalues ---    0.02368   0.02397   0.02530   0.02713   0.02850
     Eigenvalues ---    0.02978   0.03374   0.03581   0.03987   0.04389
     Eigenvalues ---    0.04628   0.05455   0.05836   0.06317   0.07430
     Eigenvalues ---    0.08741   0.09229   0.09414   0.09732   0.09894
     Eigenvalues ---    0.10556   0.10979   0.11662   0.13954   0.15760
     Eigenvalues ---    0.15816   0.15926   0.15962   0.15991   0.15996
     Eigenvalues ---    0.15997   0.15999   0.16000   0.16002   0.16003
     Eigenvalues ---    0.16003   0.16008   0.16014   0.16023   0.16033
     Eigenvalues ---    0.16135   0.16248   0.16851   0.18940   0.19437
     Eigenvalues ---    0.19902   0.20565   0.21915   0.22002   0.22125
     Eigenvalues ---    0.22164   0.22214   0.22526   0.22630   0.22965
     Eigenvalues ---    0.23048   0.23357   0.23518   0.23572   0.23603
     Eigenvalues ---    0.23803   0.23873   0.24381   0.24836   0.25058
     Eigenvalues ---    0.25281   0.25689   0.26842   0.27172   0.27540
     Eigenvalues ---    0.27825   0.28076   0.33062   0.33416   0.34009
     Eigenvalues ---    0.34461   0.34465   0.34475   0.34476   0.34486
     Eigenvalues ---    0.34489   0.34504   0.34518   0.34528   0.34531
     Eigenvalues ---    0.34552   0.34599   0.34654   0.34662   0.34772
     Eigenvalues ---    0.34843   0.34963   0.36823   0.37529   0.38628
     Eigenvalues ---    0.39239   0.40220   0.41176   0.41992   0.42236
     Eigenvalues ---    0.42435   0.43493   0.44173   0.44390   0.44581
     Eigenvalues ---    0.45184   0.45716   0.45803   0.45964   0.46028
     Eigenvalues ---    0.46094   0.46154   0.46279   0.46566   0.46725
     Eigenvalues ---    0.46777   0.46926   0.47057   0.47161   0.48528
     Eigenvalues ---    0.51985   0.54900   0.54977   0.55956   0.56935
     Eigenvalues ---    1.27046   1.29881   1.34520   1.37518   1.87076
     Eigenvalues ---    2.87932  11.12014
 Eigenvalue     1 is   2.30D-05 Eigenvector:
                          D85       D69       D73       D20       D70
   1                   -0.52742   0.45506   0.45041   0.20988  -0.19129
                          D66       D28       D24       D72       D68
   1                   -0.18664   0.17498   0.17335  -0.17298  -0.16833
 En-DIIS/RFO-DIIS/Sim-DIIS IScMMF=       -3 using points:    69   68   67   66   65   64   63   62   61   60
 RFO step:  Lambda=-3.21977310D-07.
 DIIS inversion failure, remove point  10.
 DIIS inversion failure, remove point   9.
 DIIS inversion failure, remove point   8.
 DIIS inversion failure, remove point   7.
 DIIS inversion failure, remove point   6.
 DIIS inversion failure, remove point   5.
 RFO-DIIS uses    4 points instead of   10
 EnCoef did   100 forward-backward iterations
 EnCoef did   100 forward-backward iterations
 EnCoef did   100 forward-backward iterations
 EnCoef did   100 forward-backward iterations
 EnCoef did   100 forward-backward iterations
 DidBck=T Rises=T En-DIIS coefs:    0.12595    0.00000    0.00000    0.00000    0.87405
                  En-DIIS coefs:    0.00000    0.00000    0.00000    0.00000    0.00000
 Iteration  1 RMS(Cart)=  0.02748364 RMS(Int)=  0.00024517
 Iteration  2 RMS(Cart)=  0.00092465 RMS(Int)=  0.00003161
 Iteration  3 RMS(Cart)=  0.00000077 RMS(Int)=  0.00003161
 Variable       Old X    -DE/DX   Delta X   Delta X   Delta X     New X
                                 (Linear)    (Quad)   (Total)
    R1        3.43970  -0.00005  -0.00034   0.00000  -0.00039   3.43931
    R2        3.43938  -0.00003  -0.00038   0.00000  -0.00041   3.43897
    R3        3.39138   0.00000   0.00004   0.00000   0.00004   3.39142
    R4        4.08061   0.00001   0.00012   0.00000   0.00012   4.08073
    R5        4.98289   0.00002   0.00067   0.00000   0.00076   4.98364
    R6        2.16194  -0.00006  -0.00006   0.00000  -0.00006   2.16188
    R7        5.45460  -0.00001  -0.00746   0.00000  -0.00746   5.44714
    R8        5.64296  -0.00001  -0.01736   0.00000  -0.01736   5.62560
    R9        2.16192  -0.00001   0.00004   0.00000   0.00004   2.16196
   R10        5.45940   0.00001   0.01275   0.00000   0.01275   5.47214
   R11        2.17168   0.00001  -0.00002   0.00000  -0.00002   2.17166
   R12        2.52593  -0.00000  -0.00001   0.00000  -0.00001   2.52592
   R13        2.53832   0.00000  -0.00001   0.00000  -0.00001   2.53830
   R14        2.63032  -0.00000  -0.00001   0.00000  -0.00001   2.63031
   R15        2.06019  -0.00000  -0.00000   0.00000  -0.00000   2.06018
   R16        2.62445   0.00000   0.00000   0.00000   0.00000   2.62445
   R17        2.06369  -0.00000  -0.00000   0.00000  -0.00000   2.06368
   R18        2.63456  -0.00000   0.00003   0.00000   0.00003   2.63458
   R19        2.63631   0.00000  -0.00002   0.00000  -0.00002   2.63629
   R20        2.05845   0.00000  -0.00005   0.00000  -0.00005   2.05841
   R21        2.18820   0.00000  -0.00001   0.00000  -0.00001   2.18819
   R22        2.71909   0.00000  -0.00006   0.00000  -0.00006   2.71903
   R23        2.65088  -0.00001  -0.00003   0.00000  -0.00003   2.65086
   R24        2.65110  -0.00001  -0.00001   0.00000  -0.00001   2.65109
   R25        2.62956  -0.00000   0.00001   0.00000   0.00001   2.62956
   R26        2.06279  -0.00001  -0.00004   0.00000  -0.00004   2.06275
   R27        2.06267   0.00000  -0.00001   0.00000  -0.00001   2.06266
   R28        2.63682   0.00000   0.00002   0.00000   0.00002   2.63684
   R29        2.06204  -0.00000   0.00000   0.00000   0.00000   2.06205
   R30        2.62940   0.00001   0.00003   0.00000   0.00003   2.62943
   R31        5.61845   0.00001   0.01848   0.00000   0.01847   5.63692
   R32        2.53834  -0.00000  -0.00000   0.00000  -0.00000   2.53834
   R33        2.52591   0.00001   0.00004   0.00000   0.00004   2.52595
   R34        2.63032   0.00000   0.00001   0.00000   0.00001   2.63032
   R35        2.06018   0.00000  -0.00000   0.00000  -0.00000   2.06018
   R36        2.62440  -0.00000  -0.00002   0.00000  -0.00002   2.62438
   R37        2.63456   0.00000   0.00001   0.00000   0.00001   2.63457
   R38        2.06369   0.00000   0.00000   0.00000   0.00000   2.06369
   R39        2.06091  -0.00001  -0.00001   0.00000  -0.00001   2.06090
   R40        2.06086  -0.00000  -0.00004   0.00000  -0.00004   2.06082
   R41        3.36192   0.00000   0.00008   0.00000   0.00008   3.36200
   R42        3.36198  -0.00001   0.00013   0.00000   0.00013   3.36211
   R43        3.35703  -0.00000  -0.00009   0.00000  -0.00009   3.35694
   R44        3.35709  -0.00000  -0.00002   0.00000  -0.00002   3.35707
   R45        2.81513  -0.00000   0.00005   0.00000   0.00005   2.81518
   R46        2.64231   0.00000  -0.00000   0.00000  -0.00000   2.64230
   R47        2.65997  -0.00000   0.00002   0.00000   0.00002   2.65999
   R48        2.63237   0.00000   0.00002   0.00000   0.00002   2.63239
   R49        2.06346  -0.00000  -0.00001   0.00000  -0.00001   2.06344
   R50        2.63063  -0.00000  -0.00002   0.00000  -0.00002   2.63061
   R51        2.06233   0.00000  -0.00000   0.00000  -0.00000   2.06233
   R52        2.63996  -0.00000  -0.00001   0.00000  -0.00001   2.63995
   R53        2.06316  -0.00000  -0.00001   0.00000  -0.00001   2.06315
   R54        2.64816  -0.00000   0.00000   0.00000   0.00000   2.64817
   R55        2.64816   0.00001   0.00004   0.00000   0.00004   2.64820
   R56        2.66001  -0.00000   0.00000   0.00000   0.00000   2.66002
   R57        2.63993   0.00000  -0.00002   0.00000  -0.00002   2.63991
   R58        2.63060   0.00000  -0.00002   0.00000  -0.00002   2.63058
   R59        2.06315   0.00000  -0.00001   0.00000  -0.00001   2.06315
   R60        2.63232   0.00000   0.00000   0.00000   0.00000   2.63233
   R61        2.06233  -0.00000  -0.00000   0.00000  -0.00000   2.06233
   R62        2.64240   0.00000   0.00004   0.00000   0.00004   2.64244
   R63        2.06347   0.00000   0.00001   0.00000   0.00001   2.06348
   R64        2.81505   0.00000  -0.00001   0.00000  -0.00001   2.81504
   R65        2.63644  -0.00000   0.00005   0.00000   0.00005   2.63649
   R66        2.05845   0.00001   0.00007   0.00000   0.00007   2.05851
   R67        2.63766   0.00000  -0.00001   0.00000  -0.00001   2.63766
   R68        2.06346   0.00000  -0.00000   0.00000  -0.00000   2.06346
   R69        2.06253  -0.00000   0.00001   0.00000   0.00001   2.06254
    A1        1.64751   0.00001  -0.00002   0.00000  -0.00003   1.64748
    A2        1.57207  -0.00001  -0.00005   0.00000  -0.00006   1.57202
    A3        1.46784   0.00000  -0.00019   0.00000  -0.00019   1.46765
    A4        1.57229  -0.00000   0.00009   0.00000   0.00008   1.57237
    A5        1.56493   0.00000  -0.00006   0.00000  -0.00005   1.56488
    A6        1.46858   0.00001   0.00028   0.00000   0.00029   1.46887
    A7        1.63567  -0.00002   0.00036   0.00000   0.00036   1.63603
    A8        1.61544   0.00002  -0.00015   0.00000  -0.00015   1.61529
    A9        1.69620   0.00000   0.00504   0.00000   0.00505   1.70124
   A10        1.69475  -0.00001  -0.00135   0.00000  -0.00135   1.69341
   A11        1.46331   0.00001   0.00163   0.00000   0.00162   1.46493
   A12        2.09671  -0.00003  -0.00013   0.00000  -0.00013   2.09659
   A13        2.13667   0.00003   0.00013   0.00000   0.00013   2.13680
   A14        2.04930  -0.00001  -0.00002   0.00000  -0.00002   2.04928
   A15        2.11533  -0.00000  -0.00003   0.00000  -0.00003   2.11530
   A16        2.08364   0.00000  -0.00000   0.00000  -0.00000   2.08364
   A17        2.08409  -0.00000   0.00003   0.00000   0.00003   2.08412
   A18        2.11179   0.00000   0.00005   0.00000   0.00005   2.11184
   A19        2.06886  -0.00000  -0.00002   0.00000  -0.00002   2.06885
   A20        2.10248   0.00000  -0.00003   0.00000  -0.00003   2.10245
   A21        2.16712   0.00000   0.00001   0.00000   0.00001   2.16713
   A22        2.04979  -0.00000  -0.00009   0.00000  -0.00009   2.04970
   A23        2.06627  -0.00000   0.00008   0.00000   0.00008   2.06636
   A24        2.09266  -0.00002   0.00011   0.00000   0.00011   2.09277
   A25        2.08806   0.00002  -0.00010   0.00000  -0.00010   2.08796
   A26        2.10246   0.00000  -0.00001   0.00000  -0.00001   2.10246
   A27        2.08403   0.00001   0.00004   0.00000   0.00004   2.08406
   A28        2.10919  -0.00003  -0.00011   0.00000  -0.00011   2.10908
   A29        2.08997   0.00002   0.00007   0.00000   0.00007   2.09004
   A30        2.08380   0.00000   0.00008   0.00000   0.00008   2.08389
   A31        2.09849  -0.00001  -0.00004   0.00000  -0.00004   2.09845
   A32        2.10089   0.00000  -0.00004   0.00000  -0.00004   2.10085
   A33        2.09284   0.00000  -0.00007   0.00000  -0.00007   2.09277
   A34        2.08592  -0.00000  -0.00001   0.00000  -0.00001   2.08591
   A35        2.10443   0.00000   0.00008   0.00000   0.00008   2.10451
   A36        0.96152  -0.00001  -0.00063   0.00000  -0.00065   0.96087
   A37        2.34979  -0.00000   0.02606   0.00000   0.02607   2.37586
   A38        1.09303   0.00000  -0.00137   0.00000  -0.00137   1.09167
   A39        1.32421  -0.00002   0.00067   0.00000   0.00065   1.32486
   A40        2.01896   0.00001   0.03426   0.00000   0.03421   2.05317
   A41        1.36046  -0.00001  -0.00044   0.00000  -0.00044   1.36002
   A42        2.32362  -0.00000  -0.03011   0.00000  -0.03009   2.29354
   A43        1.09295   0.00001  -0.00319   0.00000  -0.00317   1.08978
   A44        2.78853   0.00000  -0.00190   0.00000  -0.00141   2.78712
   A45        2.04929   0.00001   0.00006   0.00000   0.00006   2.04936
   A46        2.11542  -0.00000   0.00004   0.00000   0.00004   2.11546
   A47        2.08360  -0.00000  -0.00006   0.00000  -0.00006   2.08354
   A48        2.08404   0.00000   0.00002   0.00000   0.00002   2.08407
   A49        2.06891   0.00000   0.00005   0.00000   0.00005   2.06897
   A50        2.11169  -0.00000  -0.00008   0.00000  -0.00008   2.11161
   A51        2.10253  -0.00000   0.00003   0.00000   0.00003   2.10256
   A52        2.14116   0.00000   0.00001   0.00000   0.00001   2.14117
   A53        2.02775   0.00000  -0.00002   0.00000  -0.00002   2.02773
   A54        2.11421  -0.00000   0.00001   0.00000   0.00001   2.11422
   A55        2.14123  -0.00000   0.00003   0.00000   0.00003   2.14126
   A56        2.02779   0.00000  -0.00005   0.00000  -0.00005   2.02774
   A57        2.11410   0.00000   0.00002   0.00000   0.00002   2.11412
   A58        1.76224  -0.00000  -0.00010   0.00000  -0.00010   1.76214
   A59        1.77130  -0.00000  -0.00022   0.00000  -0.00022   1.77109
   A60        2.05501   0.00000  -0.00000   0.00000  -0.00000   2.05500
   A61        2.14995   0.00001  -0.00001   0.00000  -0.00001   2.14994
   A62        2.07821  -0.00001   0.00001   0.00000   0.00001   2.07821
   A63        2.09863   0.00000   0.00018   0.00000   0.00018   2.09881
   A64        2.10828  -0.00001  -0.00018   0.00000  -0.00018   2.10810
   A65        2.07623   0.00000   0.00001   0.00000   0.00001   2.07624
   A66        2.10722  -0.00000  -0.00000   0.00000  -0.00000   2.10722
   A67        2.07824   0.00000   0.00008   0.00000   0.00008   2.07832
   A68        2.09746   0.00000  -0.00007   0.00000  -0.00007   2.09738
   A69        2.09812  -0.00000  -0.00000   0.00000  -0.00000   2.09812
   A70        2.09407   0.00000   0.00002   0.00000   0.00002   2.09410
   A71        2.09080   0.00000  -0.00002   0.00000  -0.00002   2.09079
   A72        2.09087   0.00000   0.00002   0.00000   0.00002   2.09089
   A73        2.10325  -0.00000   0.00000   0.00000   0.00000   2.10326
   A74        2.08901   0.00000  -0.00002   0.00000  -0.00002   2.08899
   A75        2.07764  -0.00000   0.00011   0.00000   0.00011   2.07775
   A76        2.10813   0.00000  -0.00011   0.00000  -0.00011   2.10802
   A77        2.09652   0.00000  -0.00001   0.00000  -0.00001   2.09652
   A78        2.09403   0.00000   0.00006   0.00000   0.00006   2.09409
   A79        2.09137  -0.00000  -0.00004   0.00000  -0.00004   2.09133
   A80        2.09590  -0.00000   0.00000   0.00000   0.00000   2.09590
   A81        2.09131  -0.00000  -0.00007   0.00000  -0.00007   2.09124
   A82        2.09416  -0.00000   0.00011   0.00000   0.00011   2.09427
   A83        2.09580   0.00000  -0.00004   0.00000  -0.00004   2.09576
   A84        2.10815   0.00000  -0.00012   0.00000  -0.00012   2.10802
   A85        2.07748   0.00000   0.00006   0.00000   0.00006   2.07753
   A86        2.09668  -0.00000   0.00007   0.00000   0.00007   2.09675
   A87        2.09082  -0.00000  -0.00003   0.00000  -0.00003   2.09079
   A88        2.08905   0.00000   0.00001   0.00000   0.00001   2.08907
   A89        2.10326   0.00000   0.00002   0.00000   0.00002   2.10328
   A90        2.09804   0.00000  -0.00002   0.00000  -0.00002   2.09803
   A91        2.09088  -0.00000   0.00004   0.00000   0.00004   2.09092
   A92        2.09407  -0.00000  -0.00002   0.00000  -0.00002   2.09405
   A93        2.10736  -0.00000   0.00006   0.00000   0.00006   2.10742
   A94        2.09748  -0.00000  -0.00002   0.00000  -0.00002   2.09747
   A95        2.07807   0.00000  -0.00004   0.00000  -0.00004   2.07803
   A96        2.07613  -0.00000  -0.00004   0.00000  -0.00004   2.07609
   A97        2.10920  -0.00001   0.00010   0.00000   0.00010   2.10930
   A98        2.09782   0.00001  -0.00006   0.00000  -0.00006   2.09775
   A99        2.14959   0.00001  -0.00017   0.00000  -0.00017   2.14943
   A100       2.05499  -0.00000   0.00002   0.00000   0.00002   2.05501
   A101       2.07860  -0.00001   0.00014   0.00000   0.00014   2.07874
   A102       2.16711  -0.00001  -0.00010   0.00000  -0.00010   2.16702
   A103       2.05003  -0.00000   0.00015   0.00000   0.00015   2.05018
   A104       2.06604   0.00001  -0.00005   0.00000  -0.00005   2.06599
   A105       2.09904  -0.00000   0.00001   0.00000   0.00001   2.09906
   A106       2.09252  -0.00000  -0.00004   0.00000  -0.00004   2.09248
   A107       2.09162   0.00000   0.00002   0.00000   0.00002   2.09165
   A108       2.09643   0.00000  -0.00000   0.00000  -0.00000   2.09643
   A109       2.08896  -0.00000  -0.00002   0.00000  -0.00002   2.08894
   A110       2.09780  -0.00000   0.00002   0.00000   0.00002   2.09782
   A111       1.38908  -0.00001  -0.00151   0.00000  -0.00152   1.38756
   A112       3.21244   0.00001  -0.00007   0.00000  -0.00008   3.21237
   A113       3.03991  -0.00001  -0.00024   0.00000  -0.00025   3.03966
   A114       3.17681   0.00000   0.00041   0.00000   0.00042   3.17723
   A115       3.15806   0.00001   0.00027   0.00000   0.00028   3.15833
   A116       3.18608   0.00000   0.00003   0.00000   0.00003   3.18612
   A117       3.13247   0.00000   0.00031   0.00000   0.00031   3.13279
   A118       3.20785  -0.00003   0.00032   0.00000   0.00031   3.20816
   A119       3.03213   0.00000   0.00036   0.00000   0.00036   3.03249
   A120       3.14415   0.00001  -0.00002   0.00000  -0.00002   3.14413
   A121       3.17317   0.00000  -0.00029   0.00000  -0.00027   3.17289
   A122       3.11059  -0.00000   0.00024   0.00000   0.00024   3.11083
   A123       3.14206  -0.00002   0.00065   0.00000   0.00065   3.14271
    D1        0.60755   0.00001  -0.00153   0.00000  -0.00151   0.60604
    D2        2.17994   0.00000  -0.00144   0.00000  -0.00144   2.17851
    D3       -0.85219  -0.00000  -0.00180   0.00000  -0.00180  -0.85398
    D4        2.65312   0.00000  -0.00171   0.00000  -0.00171   2.65141
    D5       -0.57437   0.00001  -0.00221   0.00000  -0.00220  -0.57657
    D6       -0.60681  -0.00000   0.00464   0.00000   0.00463  -0.60219
    D7       -2.17901   0.00001   0.00469   0.00000   0.00468  -2.17433
    D8        2.46852   0.00002   0.00433   0.00000   0.00432   2.47284
    D9        0.85225   0.00000   0.00448   0.00000   0.00446   0.85671
   D10        2.01108   0.00000  -0.00048   0.00000  -0.00049   2.01058
   D11       -1.16550   0.00000  -0.00096   0.00000  -0.00097  -1.16647
   D12        0.43916   0.00001  -0.00057   0.00000  -0.00057   0.43859
   D13       -2.73741   0.00001  -0.00105   0.00000  -0.00105  -2.73846
   D14       -2.80390   0.00001  -0.00021   0.00000  -0.00020  -2.80410
   D15        0.30271   0.00001  -0.00068   0.00000  -0.00068   0.30203
   D16        0.82887   0.00000  -0.00375   0.00000  -0.00375   0.82512
   D17       -0.83009  -0.00000  -0.00372   0.00000  -0.00371  -0.83380
   D18       -2.39040  -0.00000  -0.00369   0.00000  -0.00369  -2.39409
   D19       -0.45255  -0.00000   0.00204   0.00000   0.00203  -0.45052
   D20       -2.52699   0.00001   0.05306   0.00000   0.05290  -2.47409
   D21        0.84470   0.00001  -0.00100   0.00000  -0.00098   0.84371
   D22        0.45251  -0.00000  -0.00243   0.00000  -0.00242   0.45009
   D23        0.61357  -0.00000  -0.00297   0.00000  -0.00295   0.61061
   D24        2.57035  -0.00001   0.04041   0.00000   0.04046   2.61081
   D25       -0.84489  -0.00000  -0.00276   0.00000  -0.00275  -0.84763
   D26       -2.72066  -0.00000  -0.00214   0.00000  -0.00215  -2.72281
   D27       -2.55960  -0.00001  -0.00268   0.00000  -0.00268  -2.56228
   D28       -0.60281  -0.00001   0.04069   0.00000   0.04073  -0.56208
   D29        2.26513  -0.00001  -0.00247   0.00000  -0.00248   2.26266
   D30        3.05981   0.00000  -0.00074   0.00000  -0.00074   3.05908
   D31       -0.08435   0.00000  -0.00059   0.00000  -0.00059  -0.08494
   D32       -0.04851   0.00000  -0.00028   0.00000  -0.00028  -0.04880
   D33        3.09051   0.00000  -0.00014   0.00000  -0.00014   3.09037
   D34       -3.09903  -0.00000   0.00057   0.00000   0.00057  -3.09846
   D35        0.03007   0.00000   0.00057   0.00000   0.00057   0.03063
   D36        0.00848  -0.00000   0.00010   0.00000   0.00010   0.00858
   D37        3.13758   0.00000   0.00010   0.00000   0.00010   3.13767
   D38       -0.01227  -0.00000  -0.00010   0.00000  -0.00010  -0.01237
   D39        3.13989   0.00000  -0.00011   0.00000  -0.00011   3.13979
   D40        3.11213  -0.00000  -0.00017   0.00000  -0.00017   3.11197
   D41       -0.01889   0.00000  -0.00017   0.00000  -0.00017  -0.01906
   D42        0.02449   0.00000   0.00013   0.00000   0.00013   0.02462
   D43       -3.10400  -0.00000   0.00013   0.00000   0.00013  -3.10387
   D44       -3.13398   0.00000   0.00006   0.00000   0.00006  -3.13391
   D45        0.02072  -0.00000   0.00006   0.00000   0.00006   0.02078
   D46       -0.01708  -0.00000   0.00001   0.00000   0.00001  -0.01708
   D47        3.11739  -0.00000  -0.00055   0.00000  -0.00055   3.11684
   D48        3.13502  -0.00000   0.00000   0.00000   0.00000   3.13502
   D49       -0.01369  -0.00000  -0.00056   0.00000  -0.00056  -0.01425
   D50        0.05320   0.00000   0.00023   0.00000   0.00023   0.05343
   D51       -3.08158   0.00000   0.00077   0.00000   0.00077  -3.08081
   D52       -3.08580  -0.00000   0.00009   0.00000   0.00009  -3.08571
   D53        0.06261  -0.00000   0.00063   0.00000   0.00063   0.06323
   D54       -3.14086  -0.00001   0.00101   0.00000   0.00101  -3.13986
   D55        0.00012  -0.00001  -0.00004   0.00000  -0.00004   0.00008
   D56        0.00019  -0.00000   0.00031   0.00000   0.00031   0.00050
   D57        3.14118   0.00000  -0.00073   0.00000  -0.00073   3.14045
   D58       -0.00054   0.00001  -0.00060   0.00000  -0.00060  -0.00114
   D59        3.14098   0.00001  -0.00069   0.00000  -0.00069   3.14029
   D60        3.14159  -0.00000   0.00009   0.00000   0.00009  -3.14150
   D61       -0.00008   0.00000  -0.00000   0.00000  -0.00000  -0.00008
   D62        3.14130   0.00000  -0.00054   0.00000  -0.00054   3.14076
   D63       -0.00014   0.00000  -0.00039   0.00000  -0.00039  -0.00053
   D64        0.00031  -0.00000   0.00050   0.00000   0.00050   0.00080
   D65       -3.14114  -0.00000   0.00064   0.00000   0.00064  -3.14049
   D66        0.67699  -0.00001  -0.04674   0.00000  -0.04662   0.63037
   D67        0.93435  -0.00002  -0.02273   0.00000  -0.02272   0.91164
   D68       -0.71584   0.00000  -0.03870   0.00000  -0.03884  -0.75468
   D69       -3.09038  -0.00001   0.11444   0.00000   0.11444  -2.97594
   D70       -2.46521  -0.00001  -0.04778   0.00000  -0.04767  -2.51288
   D71       -2.20785  -0.00001  -0.02378   0.00000  -0.02377  -2.23161
   D72        2.42514   0.00001  -0.03975   0.00000  -0.03989   2.38525
   D73        0.05061  -0.00000   0.11339   0.00000   0.11340   0.16400
   D74       -0.00001  -0.00000   0.00016   0.00000   0.00016   0.00014
   D75        3.14157  -0.00000   0.00006   0.00000   0.00006  -3.14155
   D76       -3.14146  -0.00000   0.00030   0.00000   0.00030  -3.14115
   D77        0.00013  -0.00000   0.00021   0.00000   0.00021   0.00034
   D78       -0.00008   0.00000  -0.00023   0.00000  -0.00023  -0.00032
   D79       -3.14151  -0.00000  -0.00005   0.00000  -0.00005  -3.14156
   D80        3.14143   0.00000  -0.00033   0.00000  -0.00033   3.14111
   D81        0.00001   0.00000  -0.00014   0.00000  -0.00014  -0.00013
   D82       -0.54768   0.00001   0.00091   0.00000   0.00092  -0.54676
   D83       -0.85161   0.00001   0.00023   0.00000   0.00024  -0.85137
   D84        0.54783  -0.00001   0.00161   0.00000   0.00160   0.54943
   D85        3.08249   0.00000  -0.13000   0.00000  -0.13007   2.95243
   D86       -0.00851  -0.00000   0.00000   0.00000   0.00000  -0.00851
   D87       -3.13746  -0.00000   0.00004   0.00000   0.00004  -3.13742
   D88        0.04766  -0.00000  -0.00021   0.00000  -0.00021   0.04745
   D89       -3.09078  -0.00000  -0.00015   0.00000  -0.00015  -3.09092
   D90       -3.14005   0.00000  -0.00003   0.00000  -0.00003  -3.14009
   D91        0.01191   0.00000  -0.00004   0.00000  -0.00004   0.01187
   D92        0.01843   0.00000  -0.00008   0.00000  -0.00008   0.01835
   D93       -3.11279   0.00000  -0.00008   0.00000  -0.00008  -3.11288
   D94       -0.02382   0.00000   0.00014   0.00000   0.00014  -0.02368
   D95        3.10452   0.00000   0.00010   0.00000   0.00010   3.10461
   D96        3.13436  -0.00000   0.00009   0.00000   0.00009   3.13445
   D97       -0.02049   0.00000   0.00005   0.00000   0.00005  -0.02044
   D98       -3.11989   0.00000  -0.00021   0.00000  -0.00021  -3.12010
   D99        0.01674  -0.00000  -0.00011   0.00000  -0.00011   0.01663
   D100       0.01139   0.00000  -0.00021   0.00000  -0.00021   0.01118
   D101      -3.13516  -0.00000  -0.00010   0.00000  -0.00010  -3.13527
   D102      -2.39994   0.00000   0.00012   0.00000   0.00012  -2.39982
   D103       0.80746   0.00000  -0.00024   0.00000  -0.00024   0.80722
   D104      -0.80826   0.00000  -0.00020   0.00000  -0.00020  -0.80846
   D105       2.39968   0.00000  -0.00021   0.00000  -0.00021   2.39947
   D106       2.43864   0.00000  -0.00097   0.00000  -0.00097   2.43767
   D107      -0.74822   0.00000  -0.00101   0.00000  -0.00101  -0.74922
   D108       0.74740   0.00000   0.00054   0.00000   0.00054   0.74794
   D109      -2.43924   0.00000   0.00058   0.00000   0.00058  -2.43866
   D110       1.20120   0.00001   0.00159   0.00000   0.00159   1.20279
   D111      -1.95084   0.00000   0.00189   0.00000   0.00189  -1.94895
   D112      -1.94760   0.00001   0.00102   0.00000   0.00102  -1.94658
   D113       1.18354   0.00000   0.00132   0.00000   0.00132   1.18486
   D114       3.09120  -0.00000   0.00052   0.00000   0.00052   3.09172
   D115      -0.02571  -0.00000   0.00046   0.00000   0.00046  -0.02525
   D116      -0.04014  -0.00000   0.00022   0.00000   0.00022  -0.03991
   D117       3.12614  -0.00000   0.00016   0.00000   0.00016   3.12631
   D118       0.12470   0.00000  -0.00120   0.00000  -0.00120   0.12351
   D119      -3.08287   0.00000  -0.00083   0.00000  -0.00083  -3.08370
   D120      -3.02720   0.00000  -0.00090   0.00000  -0.00090  -3.02810
   D121       0.04841   0.00000  -0.00054   0.00000  -0.00054   0.04787
   D122      -0.00478  -0.00000   0.00018   0.00000   0.00018  -0.00460
   D123      -3.12535   0.00000   0.00004   0.00000   0.00004  -3.12531
   D124       3.11185  -0.00000   0.00024   0.00000   0.00024   3.11210
   D125      -0.00872  -0.00000   0.00011   0.00000   0.00011  -0.00861
   D126       0.04169   0.00000  -0.00027   0.00000  -0.00027   0.04141
   D127      -3.11074   0.00000  -0.00022   0.00000  -0.00022  -3.11096
   D128      -3.12089  -0.00000  -0.00014   0.00000  -0.00014  -3.12102
   D129       0.00987  -0.00000  -0.00008   0.00000  -0.00008   0.00979
   D130       3.06354   0.00000  -0.00008   0.00000  -0.00008   3.06346
   D131      -0.03309   0.00000  -0.00004   0.00000  -0.00004  -0.03314
   D132      -0.06730   0.00000  -0.00014   0.00000  -0.00014  -0.06744
   D133       3.11924   0.00000  -0.00010   0.00000  -0.00010   3.11915
   D134      -0.03232  -0.00000   0.00085   0.00000   0.00085  -0.03147
   D135      -3.10803  -0.00000   0.00048   0.00000   0.00048  -3.10755
   D136       3.06352  -0.00000   0.00082   0.00000   0.00082   3.06434
   D137      -0.01219  -0.00000   0.00045   0.00000   0.00045  -0.01174
   D138       0.03379  -0.00000  -0.00003   0.00000  -0.00003   0.03377
   D139      -3.06226  -0.00000  -0.00007   0.00000  -0.00007  -3.06233
   D140       3.10898  -0.00000  -0.00002   0.00000  -0.00002   3.10896
   D141       0.01293  -0.00000  -0.00006   0.00000  -0.00006   0.01287
   D142       3.02593   0.00000   0.00015   0.00000   0.00015   3.02608
   D143      -0.12599   0.00000   0.00047   0.00000   0.00047  -0.12553
   D144      -0.04915   0.00000   0.00014   0.00000   0.00014  -0.04900
   D145       3.08211   0.00000   0.00046   0.00000   0.00046   3.08258
   D146      -3.06395   0.00000  -0.00010   0.00000  -0.00010  -3.06405
   D147       0.06687   0.00000  -0.00007   0.00000  -0.00007   0.06680
   D148       0.03290  -0.00000  -0.00006   0.00000  -0.00006   0.03284
   D149      -3.11947   0.00000  -0.00003   0.00000  -0.00003  -3.11949
   D150      -0.04201   0.00000   0.00010   0.00000   0.00010  -0.04191
   D151       3.12078   0.00000   0.00006   0.00000   0.00006   3.12084
   D152       3.11044   0.00000   0.00007   0.00000   0.00007   3.11051
   D153      -0.00995  -0.00000   0.00003   0.00000   0.00003  -0.00993
   D154       0.00510  -0.00000  -0.00002   0.00000  -0.00002   0.00508
   D155      -3.11142  -0.00000  -0.00010   0.00000  -0.00010  -3.11151
   D156       3.12545   0.00000   0.00002   0.00000   0.00002   3.12547
   D157       0.00894  -0.00000  -0.00005   0.00000  -0.00005   0.00889
   D158       0.04035  -0.00000  -0.00010   0.00000  -0.00010   0.04026
   D159      -3.09097  -0.00000  -0.00042   0.00000  -0.00042  -3.09139
   D160      -3.12604  -0.00000  -0.00003   0.00000  -0.00003  -3.12607
   D161       0.02582  -0.00000  -0.00035   0.00000  -0.00035   0.02547
   D162       1.95814   0.00000   0.00159   0.00000   0.00159   1.95973
   D163      -1.17843   0.00000   0.00148   0.00000   0.00148  -1.17695
   D164      -1.19392   0.00000   0.00191   0.00000   0.00191  -1.19200
   D165       1.95270   0.00000   0.00181   0.00000   0.00181   1.95451
   D166      -0.05215   0.00000   0.00027   0.00000   0.00027  -0.05188
   D167       3.08626   0.00000   0.00020   0.00000   0.00020   3.08646
   D168       3.08468  -0.00000   0.00037   0.00000   0.00037   3.08505
   D169      -0.06009   0.00000   0.00031   0.00000   0.00031  -0.05978
   D170       0.00013  -0.00000   0.00016   0.00000   0.00016   0.00029
   D171       3.14155   0.00000  -0.00003   0.00000  -0.00003   3.14153
   D172      -3.14146  -0.00000   0.00025   0.00000   0.00025  -3.14120
   D173      -0.00003   0.00000   0.00007   0.00000   0.00007   0.00004
         Item               Value     Threshold  Converged?
 Maximum Force            0.000062     0.000450     YES
 RMS     Force            0.000008     0.000300     YES
 Maximum Displacement     0.208954     0.001800     NO 
 RMS     Displacement     0.027371     0.001200     NO 
 Predicted change in Energy=-1.804587D-07
 GradGradGradGradGradGradGradGradGradGradGradGradGradGradGradGradGradGrad

 Stoichiometry    C32H19BrMnN3O3S2
 Framework group  C1[X(C32H19BrMnN3O3S2)]
 Deg. of freedom   177
 Full point group                 C1      NOp   1
 Largest Abelian subgroup         C1      NOp   1
 Largest concise Abelian subgroup C1      NOp   1
                         Standard orientation:                         
 ---------------------------------------------------------------------
 Center     Atomic      Atomic             Coordinates (Angstroms)
 Number     Number       Type             X           Y           Z
 ---------------------------------------------------------------------
      1         25           0        1.496732   -0.030852   -0.052560
      2          6           0        2.619494   -1.370666   -0.559230
      3          8           0        3.308566   -2.236682   -0.849009
      4          6           0        2.643828    1.299553   -0.527896
      5          8           0        3.347926    2.159632   -0.798787
      6          6           0        0.780910   -0.005455   -1.698089
      7          7           0        0.124349    1.446197    0.720760
      8          6           0       -0.489830    3.116863    2.326727
      9          6           0       -1.750500    3.249688    1.751873
     10          6           0       -1.074893    1.609701    0.153541
     11          1           0       -0.200685    3.707282    3.196405
     12          1           0       -2.487133    3.941762    2.165379
     13          7           0        4.256667   -0.039744   -3.239478
     14          6           0        5.172008   -0.011353   -2.530837
     15          6           0        6.301575    0.025502   -1.640329
     16          6           0        6.100049   -0.018433   -0.252802
     17          6           0        7.199774    0.019922    0.598912
     18          6           0        7.598751    0.106779   -2.168384
     19          1           0        5.093441   -0.080615    0.164781
     20          1           0        7.745055    0.140521   -3.249193
     21          7           0        0.095129   -1.499477    0.683314
     22          6           0       -0.545838   -3.206561    2.239815
     23          6           0       -1.810938   -3.296952    1.666443
     24          1           0       -0.265082   -3.828948    3.089725
     25          6           0        0.408498    2.200897    1.794960
     26          1           0        1.390612    2.048447    2.243935
     27          6           0        0.368467   -2.292715    1.732278
     28          1           0        1.355216   -2.173883    2.181141
     29          1           0        7.042730   -0.013488    1.678549
     30          8           0        0.379197    0.009892   -2.774673
     31         16           0       -3.859772    0.009929    1.058838
     32         16           0       -6.602496    0.056683   -0.580564
     33          6           0       -2.060934    2.468599    0.639570
     34          6           0       -3.387379    2.504758   -0.037572
     35          6           0       -3.783050    3.639899   -0.751711
     36          6           0       -4.995145    3.662680   -1.437824
     37          6           0       -5.828491    2.547694   -1.424875
     38          6           0       -5.469634    1.421349   -0.680437
     39          6           0       -4.255632    1.398291    0.019169
     40          1           0       -3.117274    4.504736   -0.784973
     41          1           0       -5.284865    4.549645   -2.003835
     42          1           0       -6.766072    2.549979   -1.984253
     43          6           0       -4.283904   -1.346296   -0.011746
     44          6           0       -5.498680   -1.329204   -0.710215
     45          6           0       -5.881878   -2.431672   -1.477857
     46          6           0       -5.072014   -3.563254   -1.515707
     47          6           0       -3.858748   -3.579993   -0.831557
     48          6           0       -3.438533   -2.468779   -0.094053
     49          1           0       -6.819923   -2.402521   -2.035696
     50          1           0       -5.380753   -4.431904   -2.099785
     51          1           0       -3.210828   -4.457342   -0.884499
     52          6           0       -2.110220   -2.475871    0.580197
     53          1           0       -2.559232   -3.987316    2.061472
     54          6           0       -1.109548   -1.621089    0.117045
     55          1           0       -1.314611   -1.013105   -0.763250
     56          1           0       -1.287265    1.033769   -0.746288
     57          6           0        8.490920    0.100720    0.076006
     58          6           0        8.689250    0.143850   -1.304945
     59          1           0        9.699687    0.207109   -1.712709
     60          1           0        9.349898    0.130447    0.749504
     61         35           0        2.896289   -0.072038    2.182284
 ---------------------------------------------------------------------
 Rotational constants (GHZ):           0.1361934           0.0383945           0.0361396
 Basis read from rwf:  (5D, 7F)
 There are   800 symmetry adapted cartesian basis functions of A   symmetry.
 There are   749 symmetry adapted basis functions of A   symmetry.
   749 basis functions,  1349 primitive gaussians,   800 cartesian basis functions
   174 alpha electrons      174 beta electrons
       nuclear repulsion energy      6536.7768937451 Hartrees.
 NAtoms=   61 NActive=   61 NUniq=   61 SFac= 1.00D+00 NAtFMM=   60 NAOKFM=T Big=T
 Integral buffers will be    131072 words long.
 Raffenetti 2 integral format.
 Two-electron integral symmetry is turned on.
 Nuclear repulsion after empirical dispersion term =     6536.7158056001 Hartrees.
 ------------------------------------------------------------------------------
 Polarizable Continuum Model (PCM)
 =================================
 Model                : PCM.
 Atomic radii         : UFF (Universal Force Field).
 Polarization charges : Total charges.
 Charge compensation  : None.
 Solution method      : On-the-fly selection.
 Cavity type          : Scaled VdW (van der Waals Surface) (Alpha=1.100).
 Cavity algorithm     : GePol (No added spheres)
                        Default sphere list used, NSphG=   61.
                        Lebedev-Laikov grids with approx.  5.0 points / Ang**2.
                        Smoothing algorithm: York/Karplus (Gamma=1.0000).
                        Polarization charges: spherical gaussians, with
                                              point-specific exponents (IZeta= 3).
                        Self-potential: point-specific (ISelfS= 7).
                        Self-field    : sphere-specific E.n sum rule (ISelfD= 2).
 1st derivatives      : Analytical E(r).r(x)/FMM algorithm (CHGder, D1EAlg=3).
                        Cavity 1st derivative terms included.
 Solvent              : TetraHydroFuran, Eps=   7.425700 Eps(inf)=   1.974025
 ------------------------------------------------------------------------------
 One-electron integrals computed using PRISM.
 PrsmSu:  requested number of processors reduced to:  11 ShMem   1 Linda.
 NBasis=   749 RedAO= T EigKep=  2.26D-04  NBF=   749
 NBsUse=   749 1.00D-06 EigRej= -1.00D+00 NBFU=   749
 Initial guess from the checkpoint file:  "checkpoint.chk"
 B after Tr=    -0.000000   -0.000000    0.000000
         Rot=    0.999990   -0.004359   -0.000008    0.001060 Ang=  -0.51 deg.
 ExpMin= 3.93D-02 ExpMax= 2.77D+05 ExpMxC= 1.70D+04 IAcc=3 IRadAn=         5 AccDes= 0.00D+00
 Harris functional with IExCor= 4639 and IRadAn=       5 diagonalized for initial guess.
 HarFok:  IExCor= 4639 AccDes= 0.00D+00 IRadAn=         5 IDoV= 1 UseB2=F ITyADJ=14
 ICtDFT=  3500011 ScaDFX=  1.000000  1.000000  1.000000  1.000000
 FoFCou: FMM=F IPFlag=           0 FMFlag=      100000 FMFlg1=        2001
         NFxFlg=           0 DoJE=T BraDBF=F KetDBF=T FulRan=T
         wScrn=  0.000000 ICntrl=       500 IOpCl=  0 I1Cent=   200000004 NGrid=           0
         NMat0=    1 NMatS0=      1 NMatT0=    0 NMatD0=    1 NMtDS0=    0 NMtDT0=    0
 Petite list used in FoFCou.
 Requested convergence on RMS density matrix=1.00D-08 within 128 cycles.
 Requested convergence on MAX density matrix=1.00D-06.
 Requested convergence on             energy=1.00D-06.
 No special actions if energy rises.
 CoulSu:  requested number of processors reduced to:   9 ShMem   1 Linda.
 Inv3:  Mode=1 IEnd=    69062412.
 Iteration    1 A*A^-1 deviation from unit magnitude is 3.55D-15 for    728.
 Iteration    1 A*A^-1 deviation from orthogonality  is 3.16D-15 for   4494   3008.
 Iteration    1 A^-1*A deviation from unit magnitude is 3.77D-15 for    728.
 Iteration    1 A^-1*A deviation from orthogonality  is 7.29D-15 for   3679   3672.
 CoulSu:  requested number of processors reduced to:   9 ShMem   1 Linda.
 CoulSu:  requested number of processors reduced to:   9 ShMem   1 Linda.
 Error on total polarization charges =  0.01743
 SCF Done:  E(RwB97XD) =  -6140.25623207     A.U. after   13 cycles
            NFock= 13  Conv=0.50D-08     -V/T= 2.0038
 PrsmSu:  requested number of processors reduced to:  11 ShMem   1 Linda.
 D1PCM: PCM CHGder 1st derivatives, ID1Alg=3 FixD1E=F DoIter=F DoCFld=F I1PDM=0.
 CoulSu:  requested number of processors reduced to:  10 ShMem   1 Linda.
 CoulSu:  requested number of processors reduced to:  10 ShMem   1 Linda.
 Calling FoFJK, ICntrl=      2127 FMM=T ISym2X=0 I1Cent= 0 IOpClX= 0 NMat=1 NMatS=1 NMatT=0.
 ***** Axes restored to original set *****
 -------------------------------------------------------------------
 Center     Atomic                   Forces (Hartrees/Bohr)
 Number     Number              X              Y              Z
 -------------------------------------------------------------------
      1       25          -0.000002977   -0.000001883   -0.000005034
      2        6           0.000003962   -0.000000095    0.000006857
      3        8           0.000002646    0.000000437    0.000002995
      4        6           0.000000883    0.000000457   -0.000002422
      5        8           0.000000991    0.000001395    0.000000296
      6        6          -0.000000152   -0.000003418    0.000001365
      7        7          -0.000003019    0.000001416    0.000004666
      8        6          -0.000000948   -0.000000703   -0.000000064
      9        6          -0.000001501    0.000001818   -0.000000048
     10        6          -0.000003366    0.000000333   -0.000001206
     11        1          -0.000000885    0.000000901    0.000001018
     12        1          -0.000001262   -0.000000089    0.000000952
     13        7           0.000000727   -0.000000188   -0.000002166
     14        6          -0.000000429   -0.000001038   -0.000002000
     15        6           0.000001311    0.000001411   -0.000000301
     16        6           0.000002171    0.000002610    0.000012313
     17        6           0.000001763    0.000000285   -0.000000246
     18        6           0.000001042    0.000001088   -0.000000227
     19        1          -0.000008963   -0.000002646   -0.000016338
     20        1           0.000001652   -0.000000875   -0.000001184
     21        7           0.000001708   -0.000004818    0.000000387
     22        6           0.000000574   -0.000000388    0.000000972
     23        6           0.000001633    0.000000558    0.000001516
     24        1           0.000000501    0.000000609    0.000000310
     25        6           0.000001862    0.000000339    0.000000485
     26        1           0.000000058    0.000002137    0.000001641
     27        6           0.000001055   -0.000001836   -0.000000686
     28        1           0.000000152    0.000001418    0.000000442
     29        1           0.000000779    0.000000196    0.000000605
     30        8          -0.000001323   -0.000000244   -0.000000636
     31       16          -0.000001953    0.000000935   -0.000000440
     32       16          -0.000002283    0.000002768    0.000000782
     33        6           0.000007228    0.000001011    0.000001677
     34        6          -0.000003709    0.000000101    0.000002458
     35        6          -0.000002337   -0.000001023   -0.000000860
     36        6          -0.000002518    0.000001463    0.000000758
     37        6          -0.000001280    0.000000095    0.000000796
     38        6          -0.000000680   -0.000000224    0.000000030
     39        6           0.000000208   -0.000000172    0.000000812
     40        1          -0.000001212    0.000000611    0.000000147
     41        1          -0.000001891    0.000000170   -0.000000309
     42        1          -0.000001294   -0.000000647   -0.000000159
     43        6          -0.000000186   -0.000000597   -0.000002113
     44        6           0.000001808   -0.000004172   -0.000000501
     45        6          -0.000001804    0.000000048   -0.000001664
     46        6          -0.000000763    0.000000833   -0.000000331
     47        6          -0.000000201   -0.000002778    0.000000958
     48        6          -0.000000329    0.000000239    0.000000369
     49        1          -0.000000693   -0.000000744   -0.000000561
     50        1           0.000000352   -0.000000890   -0.000000666
     51        1           0.000000669    0.000000220   -0.000000629
     52        6           0.000001225   -0.000000817   -0.000002245
     53        1           0.000000642   -0.000000639    0.000000096
     54        6          -0.000002565    0.000005747   -0.000002870
     55        1           0.000001208   -0.000000701    0.000000561
     56        1          -0.000000748    0.000001213    0.000000092
     57        6           0.000001066   -0.000000644    0.000000039
     58        6           0.000002051   -0.000001775   -0.000000698
     59        1           0.000001340    0.000000444   -0.000000533
     60        1           0.000001364    0.000000401    0.000000292
     61       35           0.000006641    0.000000340    0.000000450
 -------------------------------------------------------------------
 Cartesian Forces:  Max     0.000016338 RMS     0.000002431

 GradGradGradGradGradGradGradGradGradGradGradGradGradGradGradGradGradGrad
 Berny optimization.
 Using GEDIIS/GDIIS optimizer.
 FormGI is forming the generalized inverse of G from B-inverse, IUseBI=4.
 Internal  Forces:  Max     0.000012693 RMS     0.000001827
 Search for a local minimum.
 Step number  70 out of a maximum of  366
 All quantities printed in internal units (Hartrees-Bohrs-Radians)
 Mixed Optimization -- En-DIIS/RFO-DIIS
 Swapping is turned off.
 Update second derivatives using D2CorX and points   23   24   25   26   27
                                                     28   29   30   31   32
                                                     33   34   35   36   37
                                                     38   39   40   41   42
                                                     43   44   45   46   47
                                                     48   49   50   51   52
                                                     53   54   55   56   57
                                                     58   59   60   61   62
                                                     63   64   65   66   67
                                                     68   69   70
 DE= -1.55D-06 DEPred=-1.80D-07 R= 8.62D+00
 TightC=F SS=  1.41D+00  RLast= 2.48D-01 DXNew= 8.4090D-02 7.4391D-01
 Trust test= 8.62D+00 RLast= 2.48D-01 DXMaxT set to 8.41D-02
 ITU=  1 -1  0 -1 -1  0 -1  0  0  0 -1  0  0 -1  0  0 -1  0 -1  0
 ITU=  0 -1  0  0 -1 -1  0  0  0 -1  0  0  0 -1  0  0  0  0  0  0
 ITU=  0  0  0  0  0  1  1  1  1  1  1  1  1  0  1  1  1 -1 -1  1
 ITU=  0  0  0 -1  0 -1  0 -1 -1  0
     Eigenvalues ---    0.00003   0.00073   0.00161   0.00240   0.00386
     Eigenvalues ---    0.00520   0.00852   0.01108   0.01288   0.01322
     Eigenvalues ---    0.01471   0.01668   0.01687   0.01726   0.01742
     Eigenvalues ---    0.01815   0.01877   0.01889   0.01940   0.01969
     Eigenvalues ---    0.02058   0.02085   0.02102   0.02124   0.02138
     Eigenvalues ---    0.02143   0.02148   0.02155   0.02159   0.02161
     Eigenvalues ---    0.02166   0.02169   0.02170   0.02173   0.02177
     Eigenvalues ---    0.02179   0.02181   0.02185   0.02200   0.02205
     Eigenvalues ---    0.02225   0.02229   0.02233   0.02263   0.02304
     Eigenvalues ---    0.02367   0.02399   0.02538   0.02686   0.02813
     Eigenvalues ---    0.02967   0.03424   0.03635   0.04144   0.04445
     Eigenvalues ---    0.04544   0.05455   0.05867   0.06407   0.07422
     Eigenvalues ---    0.08759   0.09321   0.09476   0.09761   0.10002
     Eigenvalues ---    0.10454   0.10887   0.11644   0.13924   0.15778
     Eigenvalues ---    0.15838   0.15932   0.15963   0.15986   0.15996
     Eigenvalues ---    0.15997   0.15998   0.15999   0.16002   0.16003
     Eigenvalues ---    0.16003   0.16005   0.16011   0.16025   0.16036
     Eigenvalues ---    0.16136   0.16256   0.16649   0.19431   0.19496
     Eigenvalues ---    0.19963   0.20595   0.21939   0.22001   0.22128
     Eigenvalues ---    0.22173   0.22213   0.22557   0.22617   0.22962
     Eigenvalues ---    0.23090   0.23323   0.23519   0.23566   0.23609
     Eigenvalues ---    0.23794   0.23870   0.24472   0.24858   0.25068
     Eigenvalues ---    0.25453   0.25538   0.26880   0.27172   0.27542
     Eigenvalues ---    0.27824   0.28281   0.33080   0.33446   0.34045
     Eigenvalues ---    0.34461   0.34465   0.34476   0.34477   0.34486
     Eigenvalues ---    0.34489   0.34504   0.34518   0.34528   0.34531
     Eigenvalues ---    0.34553   0.34602   0.34654   0.34663   0.34804
     Eigenvalues ---    0.34843   0.34999   0.37048   0.37747   0.38575
     Eigenvalues ---    0.39243   0.40240   0.41186   0.41998   0.42336
     Eigenvalues ---    0.42432   0.43507   0.44181   0.44411   0.44604
     Eigenvalues ---    0.45160   0.45716   0.45809   0.45988   0.46027
     Eigenvalues ---    0.46086   0.46137   0.46284   0.46572   0.46704
     Eigenvalues ---    0.46784   0.46918   0.47053   0.47162   0.48647
     Eigenvalues ---    0.52089   0.54902   0.55028   0.55944   0.57083
     Eigenvalues ---    1.27130   1.29889   1.34539   1.37600   1.90610
     Eigenvalues ---    2.93885  11.05852
 Eigenvalue     1 is   2.61D-05 Eigenvector:
                          D85       D69       D73       D20       D70
   1                    0.52465  -0.45452  -0.44980  -0.21916   0.19947
                          D66       D28       D24       D72       D68
   1                    0.19476  -0.17035  -0.16788   0.16453   0.15982
 En-DIIS/RFO-DIIS/Sim-DIIS IScMMF=       -3 using points:    70   69   68   67   66   65   64   63   62   61
 RFO step:  Lambda=-2.24632963D-07.
 DIIS inversion failure, remove point  10.
 DIIS inversion failure, remove point   9.
 DIIS inversion failure, remove point   8.
 DIIS inversion failure, remove point   7.
 DIIS inversion failure, remove point   6.
 RFO-DIIS uses    5 points instead of   10
 DidBck=T Rises=F RFO-DIIS coefs:   -1.07656    0.60213   -0.15644   -1.36913    3.00000
                  RFO-DIIS coefs:    0.00000    0.00000    0.00000    0.00000    0.00000
 Iteration  1 RMS(Cart)=  0.01884580 RMS(Int)=  0.00011667
 Iteration  2 RMS(Cart)=  0.00042713 RMS(Int)=  0.00001820
 Iteration  3 RMS(Cart)=  0.00000014 RMS(Int)=  0.00001820
 Variable       Old X    -DE/DX   Delta X   Delta X   Delta X     New X
                                 (Linear)    (Quad)   (Total)
    R1        3.43931   0.00001   0.00000   0.00007   0.00006   3.43937
    R2        3.43897   0.00000   0.00022  -0.00002   0.00018   3.43915
    R3        3.39142  -0.00000  -0.00007   0.00003  -0.00004   3.39138
    R4        4.08073  -0.00000  -0.00014   0.00003  -0.00011   4.08062
    R5        4.98364  -0.00000  -0.00000  -0.00017  -0.00013   4.98352
    R6        2.16188   0.00000   0.00001   0.00001   0.00002   2.16190
    R7        5.44714   0.00000   0.00442   0.00010   0.00452   5.45166
    R8        5.62560   0.00000   0.00989   0.00037   0.01026   5.63586
    R9        2.16196   0.00000  -0.00003  -0.00000  -0.00004   2.16192
   R10        5.47214   0.00000  -0.00637  -0.00032  -0.00669   5.46545
   R11        2.17166  -0.00000   0.00002  -0.00000   0.00002   2.17167
   R12        2.52592   0.00000   0.00001  -0.00001   0.00001   2.52592
   R13        2.53830  -0.00000  -0.00000   0.00001   0.00000   2.53831
   R14        2.63031  -0.00000   0.00000   0.00000   0.00000   2.63031
   R15        2.06018   0.00000  -0.00000   0.00001   0.00001   2.06019
   R16        2.62445   0.00000   0.00001  -0.00001   0.00000   2.62445
   R17        2.06368   0.00000   0.00000   0.00001   0.00001   2.06369
   R18        2.63458   0.00000  -0.00000  -0.00001  -0.00001   2.63457
   R19        2.63629   0.00000   0.00000   0.00001   0.00001   2.63630
   R20        2.05841  -0.00000   0.00002   0.00001   0.00003   2.05844
   R21        2.18819   0.00000   0.00001  -0.00001   0.00000   2.18820
   R22        2.71903   0.00000   0.00004   0.00000   0.00004   2.71907
   R23        2.65086   0.00000   0.00002  -0.00001   0.00001   2.65087
   R24        2.65109   0.00000  -0.00000   0.00000   0.00000   2.65109
   R25        2.62956   0.00000  -0.00001   0.00000  -0.00000   2.62956
   R26        2.06275   0.00000   0.00003   0.00001   0.00003   2.06278
   R27        2.06266   0.00000   0.00000   0.00001   0.00001   2.06267
   R28        2.63684   0.00000  -0.00001  -0.00000  -0.00001   2.63683
   R29        2.06205   0.00000  -0.00001   0.00001   0.00000   2.06205
   R30        2.62943  -0.00000  -0.00002  -0.00000  -0.00002   2.62941
   R31        5.63692  -0.00000  -0.01223   0.00083  -0.01141   5.62551
   R32        2.53834   0.00000  -0.00001   0.00001  -0.00000   2.53833
   R33        2.52595  -0.00000  -0.00001  -0.00000  -0.00002   2.52593
   R34        2.63032  -0.00000  -0.00001   0.00000  -0.00001   2.63032
   R35        2.06018   0.00000  -0.00000   0.00001   0.00001   2.06018
   R36        2.62438   0.00000   0.00003  -0.00001   0.00002   2.62440
   R37        2.63457   0.00000   0.00000  -0.00000  -0.00000   2.63457
   R38        2.06369   0.00000  -0.00001   0.00001   0.00000   2.06369
   R39        2.06090   0.00000   0.00000   0.00001   0.00001   2.06091
   R40        2.06082   0.00000   0.00002   0.00001   0.00003   2.06085
   R41        3.36200  -0.00000  -0.00006   0.00001  -0.00005   3.36195
   R42        3.36211   0.00000  -0.00008   0.00000  -0.00008   3.36203
   R43        3.35694  -0.00000   0.00007  -0.00001   0.00006   3.35700
   R44        3.35707  -0.00000   0.00002  -0.00001   0.00001   3.35708
   R45        2.81518   0.00000  -0.00005   0.00002  -0.00003   2.81514
   R46        2.64230   0.00000   0.00001  -0.00000   0.00001   2.64231
   R47        2.65999   0.00000  -0.00002   0.00001  -0.00000   2.65998
   R48        2.63239  -0.00000  -0.00001  -0.00000  -0.00001   2.63237
   R49        2.06344   0.00000   0.00000   0.00001   0.00001   2.06345
   R50        2.63061  -0.00000   0.00002  -0.00001   0.00001   2.63062
   R51        2.06233   0.00000  -0.00000   0.00001   0.00001   2.06233
   R52        2.63995  -0.00000  -0.00000   0.00000   0.00000   2.63995
   R53        2.06315   0.00000   0.00000   0.00001   0.00001   2.06316
   R54        2.64817   0.00000  -0.00000   0.00000  -0.00000   2.64817
   R55        2.64820   0.00000  -0.00000  -0.00001  -0.00002   2.64818
   R56        2.66002  -0.00000  -0.00001   0.00000  -0.00001   2.66001
   R57        2.63991  -0.00000   0.00001   0.00000   0.00001   2.63992
   R58        2.63058   0.00000   0.00002  -0.00001   0.00001   2.63060
   R59        2.06315   0.00000  -0.00000   0.00001   0.00001   2.06315
   R60        2.63233  -0.00000  -0.00000   0.00000   0.00000   2.63233
   R61        2.06233   0.00000  -0.00000   0.00001   0.00000   2.06233
   R62        2.64244   0.00000  -0.00003   0.00000  -0.00002   2.64241
   R63        2.06348   0.00000  -0.00001   0.00001  -0.00000   2.06347
   R64        2.81504  -0.00000   0.00001   0.00001   0.00002   2.81506
   R65        2.63649   0.00000  -0.00005   0.00001  -0.00004   2.63645
   R66        2.05851  -0.00000  -0.00005   0.00001  -0.00003   2.05848
   R67        2.63766   0.00000   0.00001  -0.00000   0.00001   2.63766
   R68        2.06346   0.00000  -0.00000   0.00001   0.00000   2.06347
   R69        2.06254   0.00000  -0.00001   0.00001  -0.00000   2.06254
    A1        1.64748  -0.00000   0.00003  -0.00002   0.00001   1.64749
    A2        1.57202   0.00000   0.00009  -0.00006   0.00002   1.57204
    A3        1.46765  -0.00000   0.00004   0.00011   0.00017   1.46781
    A4        1.57237   0.00000  -0.00009   0.00004  -0.00005   1.57232
    A5        1.56488  -0.00000   0.00005  -0.00003   0.00003   1.56491
    A6        1.46887  -0.00000  -0.00016  -0.00006  -0.00022   1.46865
    A7        1.63603   0.00000  -0.00028  -0.00002  -0.00030   1.63572
    A8        1.61529  -0.00000   0.00017  -0.00003   0.00014   1.61543
    A9        1.70124  -0.00000  -0.00286  -0.00001  -0.00287   1.69837
   A10        1.69341   0.00000   0.00051   0.00014   0.00065   1.69406
   A11        1.46493  -0.00000  -0.00062  -0.00018  -0.00080   1.46413
   A12        2.09659   0.00000   0.00003   0.00005   0.00008   2.09666
   A13        2.13680  -0.00000  -0.00004  -0.00004  -0.00008   2.13672
   A14        2.04928   0.00000   0.00002  -0.00001   0.00002   2.04930
   A15        2.11530   0.00000   0.00003  -0.00000   0.00003   2.11533
   A16        2.08364  -0.00000  -0.00001   0.00001  -0.00000   2.08364
   A17        2.08412   0.00000  -0.00002  -0.00000  -0.00002   2.08410
   A18        2.11184  -0.00000  -0.00003   0.00000  -0.00003   2.11181
   A19        2.06885   0.00000   0.00002  -0.00001   0.00001   2.06886
   A20        2.10245  -0.00000   0.00001   0.00001   0.00002   2.10247
   A21        2.16713  -0.00000  -0.00001   0.00001  -0.00001   2.16712
   A22        2.04970  -0.00000   0.00007  -0.00001   0.00006   2.04976
   A23        2.06636   0.00000  -0.00006   0.00000  -0.00006   2.06630
   A24        2.09277   0.00000  -0.00009   0.00003  -0.00006   2.09271
   A25        2.08796  -0.00000   0.00008  -0.00003   0.00005   2.08801
   A26        2.10246   0.00000   0.00001  -0.00001   0.00001   2.10246
   A27        2.08406  -0.00000  -0.00002  -0.00000  -0.00002   2.08404
   A28        2.10908   0.00000   0.00001   0.00006   0.00007   2.10915
   A29        2.09004  -0.00000   0.00001  -0.00005  -0.00005   2.08999
   A30        2.08389  -0.00000  -0.00005  -0.00000  -0.00005   2.08384
   A31        2.09845   0.00000   0.00001   0.00001   0.00002   2.09848
   A32        2.10085  -0.00000   0.00004  -0.00001   0.00003   2.10087
   A33        2.09277  -0.00000   0.00005  -0.00001   0.00004   2.09280
   A34        2.08591  -0.00000  -0.00001   0.00001   0.00000   2.08591
   A35        2.10451   0.00000  -0.00004   0.00000  -0.00004   2.10447
   A36        0.96087   0.00000   0.00024   0.00002   0.00025   0.96112
   A37        2.37586   0.00000  -0.01680  -0.00099  -0.01776   2.35810
   A38        1.09167  -0.00000   0.00096  -0.00006   0.00092   1.09259
   A39        1.32486   0.00000  -0.00055   0.00002  -0.00054   1.32433
   A40        2.05317  -0.00000  -0.02227  -0.00107  -0.02333   2.02984
   A41        1.36002  -0.00000   0.00048  -0.00008   0.00041   1.36044
   A42        2.29354   0.00000   0.01977   0.00041   0.02014   2.31367
   A43        1.08978  -0.00000   0.00199  -0.00013   0.00186   1.09164
   A44        2.78712  -0.00000   0.00113   0.00071   0.00212   2.78924
   A45        2.04936   0.00000  -0.00004   0.00000  -0.00003   2.04932
   A46        2.11546   0.00000  -0.00002  -0.00001  -0.00002   2.11543
   A47        2.08354  -0.00000   0.00004   0.00000   0.00004   2.08358
   A48        2.08407   0.00000  -0.00002   0.00001  -0.00001   2.08405
   A49        2.06897  -0.00000  -0.00003  -0.00000  -0.00003   2.06893
   A50        2.11161   0.00000   0.00007  -0.00001   0.00006   2.11167
   A51        2.10256  -0.00000  -0.00004   0.00001  -0.00002   2.10254
   A52        2.14117  -0.00000  -0.00001   0.00000  -0.00001   2.14116
   A53        2.02773  -0.00000   0.00001   0.00001   0.00002   2.02775
   A54        2.11422   0.00000   0.00000  -0.00001  -0.00001   2.11421
   A55        2.14126   0.00000  -0.00002   0.00000  -0.00002   2.14124
   A56        2.02774  -0.00000   0.00004  -0.00001   0.00003   2.02777
   A57        2.11412  -0.00000  -0.00002   0.00001  -0.00001   2.11411
   A58        1.76214  -0.00000   0.00005   0.00001   0.00006   1.76220
   A59        1.77109   0.00000   0.00014  -0.00000   0.00013   1.77122
   A60        2.05500  -0.00000  -0.00000   0.00000  -0.00000   2.05500
   A61        2.14994  -0.00001  -0.00001   0.00001  -0.00001   2.14994
   A62        2.07821   0.00001   0.00002  -0.00001   0.00001   2.07822
   A63        2.09881  -0.00001  -0.00012  -0.00003  -0.00016   2.09865
   A64        2.10810   0.00001   0.00013   0.00004   0.00017   2.10827
   A65        2.07624  -0.00000  -0.00001  -0.00001  -0.00001   2.07622
   A66        2.10722   0.00000  -0.00000   0.00001   0.00001   2.10723
   A67        2.07832  -0.00000  -0.00005  -0.00001  -0.00006   2.07826
   A68        2.09738  -0.00000   0.00005  -0.00001   0.00005   2.09743
   A69        2.09812   0.00000  -0.00000  -0.00000  -0.00000   2.09811
   A70        2.09410  -0.00000  -0.00002   0.00000  -0.00001   2.09408
   A71        2.09079   0.00000   0.00002  -0.00000   0.00002   2.09080
   A72        2.09089  -0.00000  -0.00002  -0.00000  -0.00002   2.09087
   A73        2.10326   0.00000   0.00000  -0.00000  -0.00000   2.10326
   A74        2.08899   0.00000   0.00001   0.00001   0.00002   2.08901
   A75        2.07775  -0.00000  -0.00008   0.00000  -0.00008   2.07767
   A76        2.10802   0.00000   0.00007  -0.00001   0.00006   2.10809
   A77        2.09652   0.00000   0.00001   0.00001   0.00002   2.09653
   A78        2.09409   0.00000  -0.00004   0.00002  -0.00002   2.09407
   A79        2.09133  -0.00000   0.00003  -0.00001   0.00002   2.09135
   A80        2.09590  -0.00000  -0.00000  -0.00001  -0.00001   2.09589
   A81        2.09124   0.00000   0.00005  -0.00000   0.00005   2.09129
   A82        2.09427  -0.00000  -0.00008   0.00001  -0.00007   2.09419
   A83        2.09576  -0.00000   0.00003   0.00000   0.00003   2.09579
   A84        2.10802  -0.00000   0.00008  -0.00001   0.00007   2.10809
   A85        2.07753   0.00000  -0.00002   0.00000  -0.00002   2.07751
   A86        2.09675   0.00000  -0.00006   0.00001  -0.00005   2.09670
   A87        2.09079  -0.00000   0.00002  -0.00000   0.00002   2.09081
   A88        2.08907   0.00000  -0.00001  -0.00000  -0.00001   2.08906
   A89        2.10328   0.00000  -0.00002   0.00001  -0.00001   2.10327
   A90        2.09803   0.00000   0.00002  -0.00000   0.00002   2.09804
   A91        2.09092  -0.00000  -0.00003  -0.00000  -0.00003   2.09089
   A92        2.09405   0.00000   0.00001   0.00000   0.00001   2.09406
   A93        2.10742  -0.00000  -0.00005   0.00001  -0.00004   2.10738
   A94        2.09747   0.00000   0.00001  -0.00001   0.00001   2.09747
   A95        2.07803   0.00000   0.00003   0.00000   0.00004   2.07807
   A96        2.07609   0.00000   0.00004  -0.00001   0.00003   2.07611
   A97        2.10930  -0.00000  -0.00012   0.00001  -0.00011   2.10919
   A98        2.09775   0.00000   0.00008   0.00000   0.00008   2.09784
   A99        2.14943  -0.00000   0.00014  -0.00001   0.00012   2.14955
   A100       2.05501   0.00000  -0.00002   0.00001  -0.00001   2.05500
   A101       2.07874   0.00000  -0.00012   0.00001  -0.00011   2.07863
   A102       2.16702  -0.00000   0.00006  -0.00001   0.00005   2.16707
   A103       2.05018   0.00000  -0.00012   0.00002  -0.00010   2.05008
   A104       2.06599  -0.00000   0.00005  -0.00001   0.00004   2.06603
   A105       2.09906   0.00000   0.00000  -0.00001  -0.00001   2.09905
   A106       2.09248  -0.00000   0.00002   0.00000   0.00002   2.09250
   A107       2.09165  -0.00000  -0.00002   0.00001  -0.00001   2.09163
   A108       2.09643   0.00000   0.00000  -0.00000   0.00000   2.09643
   A109       2.08894   0.00000   0.00002  -0.00001   0.00001   2.08895
   A110       2.09782  -0.00000  -0.00002   0.00001  -0.00001   2.09781
   A111       1.38756   0.00000   0.00111  -0.00009   0.00101   1.38857
   A112       3.21237  -0.00000   0.00009  -0.00005   0.00004   3.21240
   A113       3.03966   0.00000   0.00013   0.00005   0.00019   3.03985
   A114       3.17723  -0.00000  -0.00036   0.00013  -0.00024   3.17699
   A115       3.15833  -0.00000  -0.00011  -0.00004  -0.00015   3.15819
   A116       3.18612  -0.00000  -0.00009   0.00003  -0.00006   3.18605
   A117       3.13279   0.00000  -0.00021   0.00006  -0.00015   3.13263
   A118       3.20816   0.00000  -0.00020  -0.00008  -0.00028   3.20788
   A119       3.03249   0.00000  -0.00024  -0.00001  -0.00026   3.03223
   A120       3.14413  -0.00000  -0.00001   0.00009   0.00008   3.14421
   A121       3.17289   0.00000   0.00036  -0.00008   0.00030   3.17320
   A122       3.11083  -0.00000  -0.00016   0.00000  -0.00016   3.11067
   A123       3.14271   0.00000  -0.00044  -0.00004  -0.00048   3.14223
    D1        0.60604  -0.00000   0.00130  -0.00017   0.00114   0.60718
    D2        2.17851   0.00000   0.00122  -0.00013   0.00109   2.17960
    D3       -0.85398  -0.00000   0.00146  -0.00012   0.00135  -0.85263
    D4        2.65141  -0.00000   0.00146   0.00006   0.00153   2.65294
    D5       -0.57657   0.00000   0.00189   0.00013   0.00203  -0.57454
    D6       -0.60219   0.00000  -0.00296   0.00010  -0.00286  -0.60505
    D7       -2.17433  -0.00000  -0.00304   0.00016  -0.00288  -2.17721
    D8        2.47284  -0.00000  -0.00276   0.00018  -0.00258   2.47026
    D9        0.85671  -0.00000  -0.00293   0.00021  -0.00271   0.85399
   D10        2.01058  -0.00000   0.00033   0.00026   0.00058   2.01116
   D11       -1.16647   0.00000   0.00076   0.00029   0.00105  -1.16542
   D12        0.43859  -0.00000   0.00041   0.00021   0.00063   0.43922
   D13       -2.73846  -0.00000   0.00085   0.00025   0.00110  -2.73737
   D14       -2.80410  -0.00000   0.00017   0.00020   0.00036  -2.80374
   D15        0.30203  -0.00000   0.00061   0.00023   0.00083   0.30286
   D16        0.82512   0.00000   0.00204  -0.00000   0.00202   0.82714
   D17       -0.83380   0.00000   0.00199   0.00002   0.00201  -0.83179
   D18       -2.39409   0.00000   0.00196   0.00005   0.00200  -2.39209
   D19       -0.45052   0.00000  -0.00142   0.00010  -0.00133  -0.45185
   D20       -2.47409  -0.00000  -0.03473  -0.00079  -0.03551  -2.50960
   D21        0.84371   0.00000   0.00046  -0.00004   0.00041   0.84412
   D22        0.45009   0.00000   0.00160  -0.00008   0.00153   0.45162
   D23        0.61061   0.00000   0.00204  -0.00015   0.00190   0.61252
   D24        2.61081   0.00000  -0.02620  -0.00151  -0.02763   2.58319
   D25       -0.84763   0.00000   0.00161  -0.00007   0.00153  -0.84611
   D26       -2.72281   0.00000   0.00124   0.00000   0.00123  -2.72158
   D27       -2.56228  -0.00000   0.00168  -0.00007   0.00160  -2.56068
   D28       -0.56208   0.00000  -0.02656  -0.00143  -0.02793  -0.59001
   D29        2.26266   0.00000   0.00125   0.00001   0.00123   2.26388
   D30        3.05908   0.00000   0.00064   0.00005   0.00069   3.05977
   D31       -0.08494   0.00000   0.00055   0.00003   0.00058  -0.08436
   D32       -0.04880   0.00000   0.00022   0.00002   0.00025  -0.04855
   D33        3.09037  -0.00000   0.00014   0.00001   0.00014   3.09051
   D34       -3.09846  -0.00000  -0.00049  -0.00005  -0.00054  -3.09900
   D35        0.03063  -0.00000  -0.00049  -0.00004  -0.00054   0.03009
   D36        0.00858  -0.00000  -0.00006  -0.00002  -0.00008   0.00850
   D37        3.13767   0.00000  -0.00007  -0.00001  -0.00008   3.13759
   D38       -0.01237   0.00000   0.00009  -0.00001   0.00008  -0.01230
   D39        3.13979  -0.00000   0.00007   0.00001   0.00008   3.13987
   D40        3.11197   0.00000   0.00015  -0.00001   0.00014   3.11211
   D41       -0.01906   0.00000   0.00014   0.00000   0.00015  -0.01891
   D42        0.02462  -0.00000  -0.00012   0.00000  -0.00011   0.02451
   D43       -3.10387  -0.00000  -0.00011  -0.00000  -0.00011  -3.10398
   D44       -3.13391   0.00000  -0.00005  -0.00000  -0.00005  -3.13396
   D45        0.02078  -0.00000  -0.00004  -0.00001  -0.00005   0.02073
   D46       -0.01708   0.00000   0.00000   0.00000   0.00000  -0.01707
   D47        3.11684   0.00000   0.00047   0.00002   0.00048   3.11732
   D48        3.13502  -0.00000  -0.00001   0.00002   0.00001   3.13503
   D49       -0.01425   0.00000   0.00046   0.00003   0.00049  -0.01376
   D50        0.05343  -0.00000  -0.00020  -0.00002  -0.00021   0.05322
   D51       -3.08081  -0.00000  -0.00064  -0.00003  -0.00067  -3.08148
   D52       -3.08571   0.00000  -0.00011   0.00000  -0.00011  -3.08582
   D53        0.06323  -0.00000  -0.00055  -0.00001  -0.00056   0.06267
   D54       -3.13986   0.00000  -0.00067  -0.00006  -0.00073  -3.14059
   D55        0.00008   0.00000   0.00004  -0.00005  -0.00001   0.00008
   D56        0.00050   0.00000  -0.00018  -0.00003  -0.00021   0.00030
   D57        3.14045   0.00000   0.00053  -0.00002   0.00052   3.14096
   D58       -0.00114  -0.00000   0.00041   0.00005   0.00046  -0.00068
   D59        3.14029  -0.00000   0.00047   0.00006   0.00053   3.14082
   D60       -3.14150   0.00000  -0.00008   0.00002  -0.00006  -3.14157
   D61       -0.00008  -0.00000  -0.00001   0.00002   0.00001  -0.00007
   D62        3.14076  -0.00000   0.00033   0.00003   0.00036   3.14113
   D63       -0.00053  -0.00000   0.00023   0.00001   0.00024  -0.00029
   D64        0.00080   0.00000  -0.00037   0.00002  -0.00035   0.00045
   D65       -3.14049  -0.00000  -0.00047  -0.00000  -0.00047  -3.14097
   D66        0.63037   0.00000   0.03057   0.00093   0.03155   0.66192
   D67        0.91164   0.00000   0.01490   0.00052   0.01545   0.92708
   D68       -0.75468   0.00000   0.02529   0.00123   0.02646  -0.72822
   D69       -2.97594  -0.00000  -0.07399  -0.00211  -0.07612  -3.05205
   D70       -2.51288   0.00000   0.03128   0.00094   0.03227  -2.48061
   D71       -2.23161   0.00000   0.01562   0.00053   0.01617  -2.21544
   D72        2.38525   0.00000   0.02601   0.00124   0.02719   2.41244
   D73        0.16400  -0.00000  -0.07328  -0.00210  -0.07539   0.08861
   D74        0.00014   0.00000  -0.00010   0.00001  -0.00008   0.00006
   D75       -3.14155   0.00000  -0.00004   0.00001  -0.00003  -3.14158
   D76       -3.14115  -0.00000  -0.00020  -0.00001  -0.00021  -3.14136
   D77        0.00034  -0.00000  -0.00014  -0.00001  -0.00015   0.00019
   D78       -0.00032  -0.00000   0.00015  -0.00000   0.00015  -0.00017
   D79       -3.14156   0.00000   0.00001  -0.00000   0.00001  -3.14155
   D80        3.14111  -0.00000   0.00022   0.00000   0.00022   3.14133
   D81       -0.00013  -0.00000   0.00008   0.00001   0.00008  -0.00005
   D82       -0.54676  -0.00000  -0.00035  -0.00002  -0.00036  -0.54712
   D83       -0.85137  -0.00000   0.00012  -0.00003   0.00011  -0.85126
   D84        0.54943  -0.00000  -0.00100   0.00006  -0.00094   0.54849
   D85        2.95243   0.00000   0.08449   0.00264   0.08716   3.03959
   D86       -0.00851   0.00000   0.00002  -0.00001   0.00001  -0.00850
   D87       -3.13742   0.00000  -0.00002   0.00001  -0.00001  -3.13743
   D88        0.04745  -0.00000   0.00017  -0.00003   0.00014   0.04759
   D89       -3.09092   0.00000   0.00002   0.00006   0.00008  -3.09084
   D90       -3.14009  -0.00000  -0.00002   0.00005   0.00003  -3.14006
   D91        0.01187   0.00000   0.00004   0.00001   0.00005   0.01192
   D92        0.01835  -0.00000   0.00004   0.00003   0.00006   0.01841
   D93       -3.11288   0.00000   0.00010  -0.00002   0.00008  -3.11280
   D94       -0.02368  -0.00000  -0.00012   0.00001  -0.00011  -0.02379
   D95        3.10461  -0.00000  -0.00007  -0.00001  -0.00008   3.10453
   D96        3.13445   0.00000  -0.00006  -0.00001  -0.00007   3.13437
   D97       -0.02044   0.00000  -0.00001  -0.00004  -0.00005  -0.02049
   D98       -3.12010   0.00000   0.00030  -0.00005   0.00026  -3.11984
   D99        0.01663   0.00000   0.00013  -0.00006   0.00007   0.01671
   D100       0.01118   0.00000   0.00024  -0.00000   0.00024   0.01142
   D101      -3.13527  -0.00000   0.00007  -0.00001   0.00005  -3.13521
   D102      -2.39982  -0.00000  -0.00006  -0.00000  -0.00006  -2.39988
   D103       0.80722  -0.00000   0.00020  -0.00001   0.00019   0.80740
   D104      -0.80846  -0.00000   0.00013   0.00003   0.00016  -0.80830
   D105       2.39947   0.00000   0.00016  -0.00002   0.00014   2.39961
   D106       2.43767  -0.00000   0.00067  -0.00007   0.00061   2.43828
   D107      -0.74922  -0.00000   0.00069  -0.00005   0.00064  -0.74858
   D108       0.74794  -0.00000  -0.00035   0.00007  -0.00028   0.74766
   D109      -2.43866  -0.00000  -0.00039   0.00007  -0.00032  -2.43898
   D110       1.20279  -0.00000  -0.00127  -0.00018  -0.00145   1.20134
   D111      -1.94895   0.00000  -0.00150  -0.00016  -0.00167  -1.95062
   D112      -1.94658   0.00000  -0.00080  -0.00016  -0.00096  -1.94754
   D113       1.18486   0.00000  -0.00103  -0.00015  -0.00118   1.18368
   D114       3.09172   0.00000  -0.00039   0.00002  -0.00037   3.09134
   D115      -0.02525   0.00000  -0.00032   0.00001  -0.00031  -0.02556
   D116      -0.03991  -0.00000  -0.00017   0.00000  -0.00016  -0.04007
   D117       3.12631  -0.00000  -0.00010   0.00000  -0.00010   3.12621
   D118       0.12351  -0.00000   0.00089  -0.00006   0.00083   0.12434
   D119      -3.08370  -0.00000   0.00063  -0.00004   0.00059  -3.08312
   D120      -3.02810   0.00000   0.00066  -0.00004   0.00062  -3.02749
   D121       0.04787  -0.00000   0.00041  -0.00003   0.00037   0.04824
   D122      -0.00460   0.00000  -0.00014   0.00002  -0.00012  -0.00472
   D123      -3.12531   0.00000  -0.00003   0.00002  -0.00001  -3.12532
   D124       3.11210   0.00000  -0.00021   0.00002  -0.00019   3.11191
   D125      -0.00861   0.00000  -0.00010   0.00002  -0.00008  -0.00869
   D126       0.04141  -0.00000   0.00021  -0.00002   0.00019   0.04160
   D127      -3.11096  -0.00000   0.00016  -0.00001   0.00015  -3.11081
   D128      -3.12102   0.00000   0.00010  -0.00002   0.00008  -3.12094
   D129       0.00979  -0.00000   0.00005  -0.00001   0.00004   0.00984
   D130       3.06346  -0.00000   0.00005   0.00001   0.00006   3.06352
   D131      -0.03314  -0.00000   0.00004  -0.00001   0.00003  -0.03311
   D132      -0.06744  -0.00000   0.00010  -0.00000   0.00010  -0.06734
   D133       3.11915  -0.00000   0.00008  -0.00002   0.00006   3.11921
   D134      -0.03147   0.00000  -0.00061   0.00003  -0.00058  -0.03205
   D135      -3.10755   0.00000  -0.00036   0.00002  -0.00034  -3.10789
   D136       3.06434  -0.00000  -0.00060   0.00005  -0.00055   3.06378
   D137      -0.01174   0.00000  -0.00034   0.00004  -0.00031  -0.01205
   D138       0.03377   0.00000   0.00000  -0.00006  -0.00006   0.03371
   D139      -3.06233   0.00000   0.00005  -0.00006  -0.00001  -3.06234
   D140       3.10896  -0.00000  -0.00003  -0.00001  -0.00004   3.10892
   D141       0.01287  -0.00000   0.00002  -0.00001   0.00001   0.01287
[...]
                 (A) (A) (A) (A) (A) (A) (A) (A) (A) (A) (A) (A)
                 (A) (A) (A) (A) (A) (A) (A) (A) (A) (A) (A) (A)
                 (A) (A) (A) (A) (A) (A) (A) (A) (A) (A) (A) (A)
                 (A) (A) (A) (A) (A) (A) (A) (A) (A) (A) (A) (A)
                 (A) (A) (A) (A) (A) (A) (A) (A) (A) (A) (A) (A)
                 (A) (A) (A) (A) (A) (A) (A) (A) (A) (A) (A) (A)
                 (A) (A) (A) (A) (A) (A) (A) (A) (A) (A) (A) (A)
                 (A) (A) (A) (A) (A) (A) (A) (A) (A) (A) (A) (A)
                 (A) (A) (A) (A) (A) (A) (A) (A) (A) (A) (A) (A)
                 (A) (A) (A) (A) (A) (A) (A) (A) (A) (A) (A) (A)
                 (A) (A) (A) (A) (A) (A) (A) (A) (A) (A) (A)
 The electronic state is 1-A.
 Alpha  occ. eigenvalues -- -482.99868-235.69665 -89.03993 -89.03788 -62.57855
 Alpha  occ. eigenvalues --  -56.38488 -56.38382 -56.38379 -27.46590 -23.52368
 Alpha  occ. eigenvalues --  -23.52245 -23.52096 -19.33639 -19.33636 -19.33299
 Alpha  occ. eigenvalues --  -14.50034 -14.50032 -14.45458 -10.41288 -10.41285
 Alpha  occ. eigenvalues --  -10.40916 -10.36515 -10.36512 -10.35806 -10.35802
 Alpha  occ. eigenvalues --  -10.35628 -10.35625 -10.35558 -10.35554 -10.35169
 Alpha  occ. eigenvalues --  -10.34999 -10.34224 -10.34223 -10.34197 -10.34196
 Alpha  occ. eigenvalues --  -10.34134 -10.34133 -10.32845 -10.32845 -10.32834
 Alpha  occ. eigenvalues --  -10.32737 -10.32736 -10.32576 -10.32484 -10.32483
 Alpha  occ. eigenvalues --  -10.32316 -10.32316 -10.32112 -10.31878 -10.31737
 Alpha  occ. eigenvalues --   -8.74600  -8.09071  -8.08927  -6.56524  -6.56158
 Alpha  occ. eigenvalues --   -6.56139  -6.04535  -6.04387  -6.04141  -6.03992
 Alpha  occ. eigenvalues --   -6.03507  -6.03363  -3.25793  -2.66988  -2.66893
 Alpha  occ. eigenvalues --   -2.66878  -2.66587  -2.66585  -2.11259  -2.10990
 Alpha  occ. eigenvalues --   -2.10762  -1.22602  -1.22546  -1.22125  -1.07875
 Alpha  occ. eigenvalues --   -1.07499  -1.01164  -1.01025  -0.98726  -0.97228
 Alpha  occ. eigenvalues --   -0.94518  -0.93307  -0.92139  -0.91046  -0.89531
 Alpha  occ. eigenvalues --   -0.88126  -0.87532  -0.86463  -0.85844  -0.85265
 Alpha  occ. eigenvalues --   -0.82812  -0.79696  -0.78820  -0.75753  -0.75666
 Alpha  occ. eigenvalues --   -0.74941  -0.74668  -0.74120  -0.72473  -0.71429
 Alpha  occ. eigenvalues --   -0.70301  -0.69812  -0.67370  -0.67036  -0.65190
 Alpha  occ. eigenvalues --   -0.64632  -0.64565  -0.64294  -0.64034  -0.62283
 Alpha  occ. eigenvalues --   -0.61224  -0.60608  -0.59908  -0.58656  -0.58243
 Alpha  occ. eigenvalues --   -0.57779  -0.57549  -0.57003  -0.56963  -0.56743
 Alpha  occ. eigenvalues --   -0.55983  -0.55914  -0.55598  -0.54769  -0.54655
 Alpha  occ. eigenvalues --   -0.54605  -0.53674  -0.53590  -0.53407  -0.53272
 Alpha  occ. eigenvalues --   -0.53007  -0.52567  -0.52280  -0.52037  -0.51947
 Alpha  occ. eigenvalues --   -0.51622  -0.51178  -0.50635  -0.50457  -0.49745
 Alpha  occ. eigenvalues --   -0.49584  -0.49009  -0.48272  -0.48237  -0.47270
 Alpha  occ. eigenvalues --   -0.46957  -0.45336  -0.45194  -0.45016  -0.44692
 Alpha  occ. eigenvalues --   -0.44358  -0.44248  -0.43795  -0.42531  -0.41868
 Alpha  occ. eigenvalues --   -0.40946  -0.40183  -0.39734  -0.39534  -0.38622
 Alpha  occ. eigenvalues --   -0.36881  -0.36701  -0.36137  -0.35535  -0.35094
 Alpha  occ. eigenvalues --   -0.34528  -0.34480  -0.34247  -0.34083  -0.31431
 Alpha  occ. eigenvalues --   -0.31368  -0.30744  -0.30445  -0.30177
 Alpha virt. eigenvalues --    0.00519   0.00687   0.01160   0.01196   0.02008
 Alpha virt. eigenvalues --    0.02902   0.03283   0.03520   0.04126   0.04403
 Alpha virt. eigenvalues --    0.04845   0.04946   0.05541   0.07628   0.07987
 Alpha virt. eigenvalues --    0.09220   0.09291   0.09508   0.10465   0.10616
 Alpha virt. eigenvalues --    0.10836   0.11149   0.12678   0.13074   0.13601
 Alpha virt. eigenvalues --    0.14040   0.14920   0.15150   0.15560   0.16109
 Alpha virt. eigenvalues --    0.16153   0.16337   0.16484   0.17982   0.18288
 Alpha virt. eigenvalues --    0.18581   0.19182   0.19315   0.19820   0.20164
 Alpha virt. eigenvalues --    0.20586   0.21156   0.21216   0.21658   0.21813
 Alpha virt. eigenvalues --    0.22064   0.23270   0.23374   0.23538   0.23788
 Alpha virt. eigenvalues --    0.24606   0.25456   0.26071   0.26919   0.27597
 Alpha virt. eigenvalues --    0.27805   0.28864   0.28894   0.30221   0.30573
 Alpha virt. eigenvalues --    0.31299   0.31844   0.32392   0.32851   0.33243
 Alpha virt. eigenvalues --    0.33322   0.33464   0.33737   0.34407   0.34897
 Alpha virt. eigenvalues --    0.35562   0.35711   0.35826   0.35969   0.36465
 Alpha virt. eigenvalues --    0.36531   0.36815   0.36999   0.37545   0.38147
 Alpha virt. eigenvalues --    0.38474   0.38504   0.39422   0.39851   0.40375
 Alpha virt. eigenvalues --    0.40607   0.40783   0.41920   0.42592   0.42685
 Alpha virt. eigenvalues --    0.42697   0.43512   0.43851   0.44032   0.45619
 Alpha virt. eigenvalues --    0.45912   0.46124   0.46877   0.47303   0.47418
 Alpha virt. eigenvalues --    0.47953   0.48713   0.48857   0.48961   0.49364
 Alpha virt. eigenvalues --    0.49916   0.50334   0.50370   0.51204   0.51438
 Alpha virt. eigenvalues --    0.51987   0.52299   0.52755   0.53286   0.53452
 Alpha virt. eigenvalues --    0.53656   0.54133   0.54665   0.54756   0.55125
 Alpha virt. eigenvalues --    0.55320   0.55804   0.55910   0.56611   0.57083
 Alpha virt. eigenvalues --    0.57695   0.57782   0.58258   0.58299   0.58439
 Alpha virt. eigenvalues --    0.58744   0.58756   0.59766   0.60374   0.60478
 Alpha virt. eigenvalues --    0.60562   0.61300   0.61312   0.62730   0.63760
 Alpha virt. eigenvalues --    0.63783   0.64044   0.64271   0.64741   0.64860
 Alpha virt. eigenvalues --    0.65578   0.65759   0.65913   0.66162   0.66771
 Alpha virt. eigenvalues --    0.66800   0.66830   0.67674   0.68234   0.68318
 Alpha virt. eigenvalues --    0.69300   0.69987   0.70425   0.70646   0.71378
 Alpha virt. eigenvalues --    0.71509   0.71582   0.71808   0.72196   0.72310
 Alpha virt. eigenvalues --    0.72326   0.72831   0.73404   0.73486   0.73576
 Alpha virt. eigenvalues --    0.73660   0.73935   0.74141   0.74900   0.75052
 Alpha virt. eigenvalues --    0.75495   0.75885   0.75925   0.76100   0.76132
 Alpha virt. eigenvalues --    0.76573   0.77049   0.77651   0.77743   0.78124
 Alpha virt. eigenvalues --    0.78185   0.78531   0.78628   0.78877   0.79916
 Alpha virt. eigenvalues --    0.80352   0.80614   0.80634   0.81094   0.81283
 Alpha virt. eigenvalues --    0.81472   0.81612   0.82012   0.82393   0.82681
 Alpha virt. eigenvalues --    0.83193   0.83418   0.83787   0.84333   0.84530
 Alpha virt. eigenvalues --    0.84971   0.84993   0.85781   0.86108   0.86800
 Alpha virt. eigenvalues --    0.86881   0.87361   0.87479   0.88267   0.88485
 Alpha virt. eigenvalues --    0.88506   0.88946   0.89121   0.89750   0.90246
 Alpha virt. eigenvalues --    0.90689   0.91018   0.91082   0.91637   0.91757
 Alpha virt. eigenvalues --    0.92818   0.93416   0.93634   0.94462   0.94799
 Alpha virt. eigenvalues --    0.95551   0.95601   0.96127   0.96873   0.97224
 Alpha virt. eigenvalues --    0.97977   0.98664   0.99052   0.99524   1.00140
 Alpha virt. eigenvalues --    1.01194   1.02528   1.03435   1.04475   1.04937
 Alpha virt. eigenvalues --    1.05885   1.06638   1.06674   1.08117   1.08697
 Alpha virt. eigenvalues --    1.09045   1.09114   1.09518   1.10142   1.10773
 Alpha virt. eigenvalues --    1.11190   1.11988   1.12681   1.13295   1.14238
 Alpha virt. eigenvalues --    1.15061   1.15398   1.15503   1.16440   1.17786
 Alpha virt. eigenvalues --    1.19122   1.19818   1.20522   1.20890   1.21028
 Alpha virt. eigenvalues --    1.22360   1.22474   1.22567   1.24260   1.25661
 Alpha virt. eigenvalues --    1.25867   1.26884   1.27447   1.27539   1.28337
 Alpha virt. eigenvalues --    1.29231   1.29476   1.29716   1.29850   1.30246
 Alpha virt. eigenvalues --    1.30379   1.31225   1.31672   1.32020   1.32150
 Alpha virt. eigenvalues --    1.32531   1.33130   1.33253   1.34433   1.34907
 Alpha virt. eigenvalues --    1.35258   1.35718   1.35826   1.36160   1.36499
 Alpha virt. eigenvalues --    1.37094   1.37638   1.38658   1.38889   1.39351
 Alpha virt. eigenvalues --    1.39999   1.40179   1.40888   1.41161   1.42592
 Alpha virt. eigenvalues --    1.43814   1.44856   1.45114   1.47787   1.48903
 Alpha virt. eigenvalues --    1.50044   1.50533   1.53047   1.53416   1.54708
 Alpha virt. eigenvalues --    1.57046   1.57222   1.58214   1.58911   1.59725
 Alpha virt. eigenvalues --    1.61481   1.62628   1.64262   1.65719   1.66362
 Alpha virt. eigenvalues --    1.66700   1.67323   1.69407   1.69902   1.70023
 Alpha virt. eigenvalues --    1.70904   1.72633   1.72988   1.73092   1.74265
 Alpha virt. eigenvalues --    1.74400   1.75012   1.75292   1.75656   1.75770
 Alpha virt. eigenvalues --    1.76510   1.76634   1.77538   1.77817   1.78172
 Alpha virt. eigenvalues --    1.78433   1.78649   1.79010   1.79690   1.79828
 Alpha virt. eigenvalues --    1.79926   1.80864   1.81530   1.81980   1.82124
 Alpha virt. eigenvalues --    1.82183   1.82855   1.82965   1.83268   1.83321
 Alpha virt. eigenvalues --    1.83350   1.83910   1.84064   1.84329   1.85542
 Alpha virt. eigenvalues --    1.85861   1.86310   1.87482   1.88178   1.88449
 Alpha virt. eigenvalues --    1.88591   1.89197   1.89263   1.90245   1.90626
 Alpha virt. eigenvalues --    1.91180   1.91194   1.91644   1.92433   1.92937
 Alpha virt. eigenvalues --    1.93617   1.94176   1.96251   1.97187   1.97288
 Alpha virt. eigenvalues --    1.98219   1.98894   1.99006   1.99063   2.00642
 Alpha virt. eigenvalues --    2.00726   2.01254   2.01453   2.02165   2.02202
 Alpha virt. eigenvalues --    2.03188   2.03614   2.04022   2.04042   2.04538
 Alpha virt. eigenvalues --    2.04848   2.06043   2.06489   2.06579   2.07332
 Alpha virt. eigenvalues --    2.07871   2.08243   2.08733   2.09571   2.10150
 Alpha virt. eigenvalues --    2.10997   2.11750   2.12107   2.12256   2.14304
 Alpha virt. eigenvalues --    2.15987   2.17045   2.18556   2.18767   2.19486
 Alpha virt. eigenvalues --    2.19559   2.20698   2.21547   2.21682   2.22492
 Alpha virt. eigenvalues --    2.22679   2.23093   2.24051   2.24635   2.26030
 Alpha virt. eigenvalues --    2.26442   2.27154   2.29704   2.30123   2.30814
 Alpha virt. eigenvalues --    2.31314   2.31439   2.31597   2.31866   2.32070
 Alpha virt. eigenvalues --    2.32714   2.34158   2.34948   2.35695   2.35850
 Alpha virt. eigenvalues --    2.36493   2.37954   2.38002   2.38190   2.38748
 Alpha virt. eigenvalues --    2.38797   2.39198   2.39566   2.39788   2.40548
 Alpha virt. eigenvalues --    2.41005   2.42364   2.42565   2.43762   2.46318
 Alpha virt. eigenvalues --    2.46892   2.47873   2.48903   2.50374   2.50563
 Alpha virt. eigenvalues --    2.53350   2.53469   2.55698   2.56420   2.59416
 Alpha virt. eigenvalues --    2.59584   2.59837   2.60415   2.62161   2.66833
 Alpha virt. eigenvalues --    2.67462   2.67722   2.68341   2.68400   2.68446
 Alpha virt. eigenvalues --    2.69969   2.70246   2.70371   2.70501   2.70871
 Alpha virt. eigenvalues --    2.70933   2.71461   2.71620   2.71625   2.72061
 Alpha virt. eigenvalues --    2.72895   2.76254   2.76886   2.77037   2.78289
 Alpha virt. eigenvalues --    2.80036   2.80274   2.80612   2.80788   2.81798
 Alpha virt. eigenvalues --    2.83172   2.83993   2.84288   2.86354   2.86426
 Alpha virt. eigenvalues --    2.87457   2.87744   2.90170   2.91538   2.93420
 Alpha virt. eigenvalues --    2.93713   2.93925   2.96392   2.98773   2.99616
 Alpha virt. eigenvalues --    3.00002   3.02308   3.03664   3.04218   3.04918
 Alpha virt. eigenvalues --    3.06233   3.07502   3.08429   3.08673   3.10419
 Alpha virt. eigenvalues --    3.11315   3.15324   3.15996   3.16498   3.20209
 Alpha virt. eigenvalues --    3.20590   3.21714   3.22785   3.22941   3.23496
 Alpha virt. eigenvalues --    3.24768   3.25055   3.30669   3.31208   3.33941
 Alpha virt. eigenvalues --    3.39320   3.39390   3.40795   3.45392   3.46968
 Alpha virt. eigenvalues --    3.48370   3.53354   3.53962   3.57520   3.57816
 Alpha virt. eigenvalues --    3.58665   3.62240   3.62694   3.63571   3.64702
 Alpha virt. eigenvalues --    3.65920   3.69158   3.70355   3.70594   3.75797
 Alpha virt. eigenvalues --    3.76397   3.78004   3.80383   3.81453   3.83282
 Alpha virt. eigenvalues --    3.93576   3.99580   4.03018   4.06697   4.10895
          Condensed to atoms (all electrons):
 Mulliken charges:
               1
     1  Mn  -0.778811
     2  C    0.360831
     3  O   -0.056740
     4  C    0.361300
     5  O   -0.056807
     6  C    0.312949
     7  N   -0.224202
     8  C   -0.038103
     9  C    0.069218
    10  C    0.164084
    11  H    0.059265
    12  H    0.053359
    13  N   -0.025006
    14  C   -0.055488
    15  C   -0.125533
    16  C    0.022705
    17  C   -0.030109
    18  C    0.017069
    19  H    0.031785
    20  H    0.045449
    21  N   -0.224252
    22  C   -0.038142
    23  C    0.068890
    24  H    0.059258
    25  C    0.112740
    26  H    0.108406
    27  C    0.112824
    28  H    0.108323
    29  H    0.056173
    30  O   -0.077103
    31  S    0.100173
    32  S    0.088198
    33  C   -0.101070
    34  C   -0.009324
    35  C   -0.012231
    36  C   -0.018507
    37  C   -0.005814
    38  C   -0.083090
    39  C   -0.048804
    40  H    0.038852
    41  H    0.051070
    42  H    0.041221
    43  C   -0.049173
    44  C   -0.082994
    45  C   -0.005813
    46  C   -0.018469
    47  C   -0.012417
    48  C   -0.008934
    49  H    0.041239
    50  H    0.051077
    51  H    0.038870
    52  C   -0.100692
    53  H    0.053365
    54  C    0.164529
    55  H    0.043432
    56  H    0.043989
    57  C   -0.006964
    58  C   -0.026359
    59  H    0.049075
    60  H    0.050036
    61  Br  -0.658802
 Sum of Mulliken charges =  -0.00000
 Mulliken charges with hydrogens summed into heavy atoms:
               1
     1  Mn  -0.778811
     2  C    0.360831
     3  O   -0.056740
     4  C    0.361300
     5  O   -0.056807
     6  C    0.312949
     7  N   -0.224202
     8  C    0.021161
     9  C    0.122577
    10  C    0.208073
    13  N   -0.025006
    14  C   -0.055488
    15  C   -0.125533
    16  C    0.054490
    17  C    0.026064
    18  C    0.062518
    21  N   -0.224252
    22  C    0.021116
    23  C    0.122255
    25  C    0.221146
    27  C    0.221148
    30  O   -0.077103
    31  S    0.100173
    32  S    0.088198
    33  C   -0.101070
    34  C   -0.009324
    35  C    0.026622
    36  C    0.032562
    37  C    0.035407
    38  C   -0.083090
    39  C   -0.048804
    43  C   -0.049173
    44  C   -0.082994
    45  C    0.035427
    46  C    0.032608
    47  C    0.026453
    48  C   -0.008934
    52  C   -0.100692
    54  C    0.207961
    57  C    0.043072
    58  C    0.022716
    61  Br  -0.658802
 Electronic spatial extent (au):  <R**2>=          29207.5211
 Charge=              0.0000 electrons
 Dipole moment (field-independent basis, Debye):
    X=             -8.1030    Y=              0.1089    Z=              1.1221  Tot=              8.1811
 Quadrupole moment (field-independent basis, Debye-Ang):
   XX=           -234.5174   YY=           -232.7196   ZZ=           -284.2948
   XY=              0.8496   XZ=              7.8208   YZ=              0.0286
 Traceless Quadrupole moment (field-independent basis, Debye-Ang):
   XX=             15.9932   YY=             17.7910   ZZ=            -33.7842
   XY=              0.8496   XZ=              7.8208   YZ=              0.0286
 Octapole moment (field-independent basis, Debye-Ang**2):
  XXX=            495.1029  YYY=             -1.4812  ZZZ=            102.5222  XYY=           -130.1062
  XXY=              4.9053  XXZ=           -123.9595  XZZ=            -12.0746  YZZ=              1.0015
  YYZ=             49.6617  XYZ=             -1.3633
 Hexadecapole moment (field-independent basis, Debye-Ang**3):
 XXXX=         -24926.0466 YYYY=          -5527.0006 ZZZZ=          -3790.9254 XXXY=             55.4326
 XXXZ=            339.8557 YYYX=             -7.7541 YYYZ=             -5.9041 ZZZX=            178.8484
 ZZZY=              1.1598 XXYY=          -5738.5129 XXZZ=          -5386.7835 YYZZ=          -1373.9366
 XXYZ=             -9.2530 YYXZ=            264.3231 ZZXY=              7.0674
 N-N= 6.536714159142D+03 E-N=-2.761602440801D+04  KE= 6.117279440027D+03
 1\1\GINC-C401-003\FOpt\RwB97XD\Gen\C32H19Br1Mn1N3O3S2\DMCINTOS\18-Mar-
 2023\0\\# wB97XD Gen SCRF=(Solvent=TetraHydroFuran) Opt\\Thian Prod Op
 timization\\0,1\Mn,6.3725517684,3.4539550745,16.0756938029\C,7.5418698
 07,4.4850020716,17.0148551366\O,8.2624758988,5.1169850341,17.639463640
 2\C,6.2283511066,4.6298422882,14.6941572045\O,6.1003154968,5.354769267
 8,13.8184233039\C,7.7453666303,2.6464730944,15.2485897755\N,4.88698146
 86,2.1949033294,15.1425592482\C,2.635800587,1.7498433593,14.4486153217
 \C,2.9829988389,0.4649846663,14.0411982898\C,5.2171288443,0.9729774222
 ,14.7129569366\H,1.612876073,2.1150085345,14.3546903346\H,2.2355294261
 ,-0.2148627539,13.626848443\N,9.3477931489,6.0315,14.5620103542\C,8.79
 23315205,6.9841950644,14.9150949576\C,8.0922856722,8.1606527596,15.358
 0884839\C,6.879741294,8.0332149967,16.0518404417\C,6.2109054986,9.1778
 54042,16.4746173946\C,8.6291317212,9.4290108093,15.0912832068\H,6.4561
 020783,7.0494881652,16.2624399347\H,9.572965058,9.5176684074,14.550907
 6704\N,6.3367837153,2.0334543916,17.7015949413\C,5.7504602628,1.406461
 1068,19.9400575304\C,6.2053978982,0.1081894001,19.7281215365\H,5.32628
 15568,1.7069473334,20.8983480618\C,3.6059937933,2.5742858691,15.003386
 706\H,3.3580966426,3.573212831,15.364021385\C,5.8200043812,2.330218602
 1,18.9053962912\H,5.4403614797,3.3450401116,19.0291717792\H,5.26725170
 67,9.0784715939,17.0141040297\O,8.648841181,2.1846603756,14.7090323844
 \S,4.999180944,-1.8235654392,16.5191319304\S,6.214016434,-4.6499450074
 ,15.6534217675\C,4.3080456449,0.055982957,14.1848151618\C,4.786500373,
 -1.304347769,13.8109223732\C,4.8334290599,-1.6897242605,12.4676404972\
 C,5.3348413706,-2.9368022812,12.1018590479\C,5.8027656833,-3.816306384
 4,13.0741544195\C,5.7224369113,-3.4655701099,14.4240248813\C,5.2091580
 356,-2.2159742411,14.7966385604\H,4.4923388779,-0.9893730163,11.702469
 4491\H,5.3798299405,-3.2189567946,11.0485866948\H,6.2232256248,-4.7831
 849979,12.790724386\C,6.5579110056,-2.3670462809,17.1825763479\C,7.073
 5845337,-3.6173434336,16.8156590792\C,8.2484383501,-4.0914984417,17.40
 42828739\C,8.8844244938,-3.335836273,18.3852555401\C,8.3809394403,-2.0
 87832474,18.744911108\C,7.2308715792,-1.5780601685,18.1344168237\H,8.6
 551636291,-5.0572984804,17.0980563585\H,9.7914668705,-3.7151331775,18.
 8589942399\H,8.8960739583,-1.483325002,19.4942729263\C,6.7395021587,-0
 .2153039388,18.4816317106\H,6.1384999728,-0.6464951618,20.5146127665\C
 ,6.804998126,0.7945392137,17.521242812\H,7.2682153982,0.5673573223,16.
 5618746924\H,6.2649378387,0.6830885348,14.7806896188\C,6.7429071727,10
 .4404475899,16.2103896682\C,7.9496684012,10.564997281,15.5201435058\H,
 8.3647334593,11.5531794309,15.3140674152\H,6.2133640371,11.3349445127,
 16.5447368029\Br,4.5415761197,4.9767490432,17.2084280142\\Version=ES64
 L-G16RevA.03\State=1-A\HF=-6140.2562308\RMSD=6.619e-09\RMSF=9.447e-07\
 Dipole=-0.6402186,-3.1518367,0.1266143\Quadrupole=-16.5816757,12.49333
 12,4.0883445,-3.5454874,16.4287941,1.2159211\PG=C01 [X(C32H19Br1Mn1N3O
 3S2)]\\@


 IF AT FIRST YOU DON'T SUCCEED, TRY LOOKING IN 
 THE WASTEBASKET FOR THE DIRECTIONS.
 Job cpu time:       1 days 20 hours 16 minutes 12.1 seconds.
 Elapsed time:       0 days  3 hours 46 minutes 33.2 seconds.
 File lengths (MBytes):  RWF=    869 Int=      0 D2E=      0 Chk=     49 Scr=      1
 Normal termination of Gaussian 16 at Sat Mar 18 22:36:23 2023.
