 Entering Gaussian System, Link 0=g16
 Initial command:
 /home1/apps/gaussian/16rA.03/g16/l1.exe "/tmp/Gau-119027.inp" -scrdir="/tmp/"
 Entering Link 1 = /home1/apps/gaussian/16rA.03/g16/l1.exe PID=    119028.
  
 Copyright (c) 1988,1990,1992,1993,1995,1998,2003,2009,2016,
            Gaussian, Inc.  All Rights Reserved.
  
 This is part of the Gaussian(R) 16 program.  It is based on
 the Gaussian(R) 09 system (copyright 2009, Gaussian, Inc.),
 the Gaussian(R) 03 system (copyright 2003, Gaussian, Inc.),
 the Gaussian(R) 98 system (copyright 1998, Gaussian, Inc.),
 the Gaussian(R) 94 system (copyright 1995, Gaussian, Inc.),
 the Gaussian 92(TM) system (copyright 1992, Gaussian, Inc.),
 the Gaussian 90(TM) system (copyright 1990, Gaussian, Inc.),
 the Gaussian 88(TM) system (copyright 1988, Gaussian, Inc.),
 the Gaussian 86(TM) system (copyright 1986, Carnegie Mellon
 University), and the Gaussian 82(TM) system (copyright 1983,
 Carnegie Mellon University). Gaussian is a federally registered
 trademark of Gaussian, Inc.
  
 This software contains proprietary and confidential information,
 including trade secrets, belonging to Gaussian, Inc.
  
 This software is provided under written license and may be
 used, copied, transmitted, or stored only in accord with that
 written license.
  
 The following legend is applicable only to US Government
 contracts under FAR:
  
                    RESTRICTED RIGHTS LEGEND
  
 Use, reproduction and disclosure by the US Government is
 subject to restrictions as set forth in subparagraphs (a)
 and (c) of the Commercial Computer Software - Restricted
 Rights clause in FAR 52.227-19.
  
 Gaussian, Inc.
 340 Quinnipiac St., Bldg. 40, Wallingford CT 06492
  
  
 ---------------------------------------------------------------
 Warning -- This program may not be used in any manner that
 competes with the business of Gaussian, Inc. or will provide
 assistance to any competitor of Gaussian, Inc.  The licensee
 of this program is prohibited from giving any competitor of
 Gaussian, Inc. access to this program.  By using this program,
 the user acknowledges that Gaussian, Inc. is engaged in the
 business of creating and licensing software in the field of
 computational chemistry and represents and warrants to the
 licensee that it is not a competitor of Gaussian, Inc. and that
 it will not use this program in any manner prohibited above.
 ---------------------------------------------------------------
  

 Cite this work as:
 Gaussian 16, Revision A.03,
 M. J. Frisch, G. W. Trucks, H. B. Schlegel, G. E. Scuseria, 
 M. A. Robb, J. R. Cheeseman, G. Scalmani, V. Barone, 
 G. A. Petersson, H. Nakatsuji, X. Li, M. Caricato, A. V. Marenich, 
 J. Bloino, B. G. Janesko, R. Gomperts, B. Mennucci, H. P. Hratchian, 
 J. V. Ortiz, A. F. Izmaylov, J. L. Sonnenberg, D. Williams-Young, 
 F. Ding, F. Lipparini, F. Egidi, J. Goings, B. Peng, A. Petrone, 
 T. Henderson, D. Ranasinghe, V. G. Zakrzewski, J. Gao, N. Rega, 
 G. Zheng, W. Liang, M. Hada, M. Ehara, K. Toyota, R. Fukuda, 
 J. Hasegawa, M. Ishida, T. Nakajima, Y. Honda, O. Kitao, H. Nakai, 
 T. Vreven, K. Throssell, J. A. Montgomery, Jr., J. E. Peralta, 
 F. Ogliaro, M. J. Bearpark, J. J. Heyd, E. N. Brothers, K. N. Kudin, 
 V. N. Staroverov, T. A. Keith, R. Kobayashi, J. Normand, 
 K. Raghavachari, A. P. Rendell, J. C. Burant, S. S. Iyengar, 
 J. Tomasi, M. Cossi, J. M. Millam, M. Klene, C. Adamo, R. Cammi, 
 J. W. Ochterski, R. L. Martin, K. Morokuma, O. Farkas, 
 J. B. Foresman, and D. J. Fox, Gaussian, Inc., Wallingford CT, 2016.
 
 ******************************************
 Gaussian 16:  ES64L-G16RevA.03 25-Dec-2016
                16-Mar-2023 
 ******************************************
 %NProcShared=12
 Will use up to   12 processors via shared memory.
 %Chk=checkpoint.chk
 -----------------------------------------------
 # wB97XD Gen SCRF=(Solvent=TetraHydroFuran) Opt
 -----------------------------------------------
 1/18=20,19=15,26=3,38=1/1,3;
 2/9=110,12=2,17=6,18=5,40=1/2;
 3/5=7,11=2,25=1,30=1,70=2201,71=1,72=20,74=-58/1,2,3;
 4//1;
 5/5=2,38=5,53=20/2;
 6/7=2,8=2,9=2,10=2,28=1/1;
 7//1,2,3,16;
 1/18=20,19=15,26=3/3(2);
 2/9=110/2;
 99//99;
 2/9=110/2;
 3/5=7,6=1,11=2,25=1,30=1,70=2205,71=1,72=20,74=-58,82=7/1,2,3;
 4/5=5,16=3,69=1/1;
 5/5=2,38=5,53=20/2;
 7//1,2,3,16;
 1/18=20,19=15,26=3/3(-5);
 2/9=110/2;
 6/7=2,8=2,9=2,10=2,19=2,28=1/1;
 99/9=1/99;
 -----------------------
 Thian Prod Optimization
 -----------------------
 Symbolic Z-matrix:
 Charge =  0 Multiplicity = 1
 Mn                    6.36588   3.47442   16.21992 
 C                     7.50596   4.47423   17.22516 
 O                     8.20133   5.06927   17.91161 
 C                     6.25306   4.64886   14.83816 
 O                     6.12729   5.33918   13.93414 
 C                     7.76357   2.68602   15.42109 
 N                     4.88625   2.24029   15.23665 
 C                     2.62731   1.75258   14.60325 
 C                     2.99941   0.49798   14.12903 
 C                     5.24157   1.05094   14.73993 
 H                     1.58934   2.0871    14.56274 
 H                     2.2576   -0.19089   13.71677 
 N                     9.42718   5.87773   14.87564 
 C                     8.87212   6.87247   15.08065 
 C                     8.15647   8.09582   15.3389 
 C                     6.95427   8.057     16.06022 
 C                     6.26297   9.24057   16.29858 
 C                     8.66258   9.31253   14.85996 
 H                     6.55641   7.10871   16.43046 
 H                     9.59865   9.32883   14.29746 
 N                     6.27116   1.99141   17.80585 
 C                     5.58206   1.28251   19.98835 
 C                     6.06103  -0.00368   19.75489 
 H                     5.10706   1.54557   20.93505 
 C                     3.59088   2.58355   15.16025 
 H                     3.32551   3.55807   15.5754 
 C                     5.69288   2.24232   18.99079 
 H                     5.29636   3.25058   19.12841 
 H                     5.32597   9.2126    16.85992 
 O                     8.69707   2.2595    14.90268 
 S                     4.98029  -1.83597   16.46737 
 S                     6.23586  -4.61485   15.53148 
 C                     4.34155   0.12854   14.2061 
 C                     4.84828  -1.20848   13.77947 
 C                     4.9511   -1.53319   12.42372 
 C                     5.47744  -2.75981   12.02426 
 C                     5.91449  -3.67899   12.97403 
 C                     5.78085  -3.38698   14.33347 
 C                     5.24495  -2.15782   14.73959 
 H                     4.63199  -0.80236   11.67648 
 H                     5.56576  -2.99544   10.96119 
 H                     6.35186  -4.63089   12.66275 
 C                     6.5235   -2.39077   17.15302 
 C                     7.05585  -3.62422   16.75489 
 C                     8.21764  -4.11423   17.35549 
 C                     8.82418  -3.39005   18.37775 
 C                     8.30614  -2.15655   18.76719 
 C                     7.16804  -1.6306    18.14765 
 H                     8.63812  -5.06716   17.02478 
 H                     9.72199  -3.78276   18.86068 
 H                     8.80137  -1.57623   19.54972 
 C                     6.65679  -0.2798    18.52476 
 H                     5.9615   -0.78586   20.51191 
 C                     6.75742   0.76266   17.60234 
 H                     7.26015   0.5678    16.65413 
 H                     6.30055   0.79032   14.76193 
 C                     6.76387   10.45322   15.8233 
 C                     7.96068   10.4886   15.1061 
 H                     8.35022   11.43889   14.73362 
 H                     6.21602   11.37982   16.01261 
 Br                    4.5484    5.02387   17.34451 
 
 Add virtual bond connecting atoms H19        and C2         Dist= 5.50D+00.
 Add virtual bond connecting atoms H19        and O3         Dist= 5.69D+00.
 Add virtual bond connecting atoms H19        and C4         Dist= 5.57D+00.
 Add virtual bond connecting atoms H19        and Br61       Dist= 5.74D+00.

 GradGradGradGradGradGradGradGradGradGradGradGradGradGradGradGradGradGrad
 Berny optimization.
 Initialization pass.
                           ----------------------------
                           !    Initial Parameters    !
                           ! (Angstroms and Degrees)  !
 --------------------------                            --------------------------
 ! Name  Definition              Value          Derivative Info.                !
 --------------------------------------------------------------------------------
 ! R1    R(1,2)                  1.8193         estimate D2E/DX2                !
 ! R2    R(1,4)                  1.8169         estimate D2E/DX2                !
 ! R3    R(1,6)                  1.7926         estimate D2E/DX2                !
 ! R4    R(1,7)                  2.1631         estimate D2E/DX2                !
 ! R5    R(1,61)                 2.6398         estimate D2E/DX2                !
 ! R6    R(2,3)                  1.144          estimate D2E/DX2                !
 ! R7    R(2,19)                 2.911          estimate D2E/DX2                !
 ! R8    R(3,19)                 3.0098         estimate D2E/DX2                !
 ! R9    R(4,5)                  1.1444         estimate D2E/DX2                !
 ! R10   R(4,19)                 2.9459         estimate D2E/DX2                !
 ! R11   R(6,30)                 1.1498         estimate D2E/DX2                !
 ! R12   R(7,10)                 1.337          estimate D2E/DX2                !
 ! R13   R(7,25)                 1.3423         estimate D2E/DX2                !
 ! R14   R(8,9)                  1.3919         estimate D2E/DX2                !
 ! R15   R(8,11)                 1.0913         estimate D2E/DX2                !
 ! R16   R(8,25)                 1.389          estimate D2E/DX2                !
 ! R17   R(9,12)                 1.0931         estimate D2E/DX2                !
 ! R18   R(9,33)                 1.3942         estimate D2E/DX2                !
 ! R19   R(10,33)                1.3949         estimate D2E/DX2                !
 ! R20   R(10,56)                1.0908         estimate D2E/DX2                !
 ! R21   R(13,14)                1.1574         estimate D2E/DX2                !
 ! R22   R(14,15)                1.4406         estimate D2E/DX2                !
 ! R23   R(15,16)                1.4025         estimate D2E/DX2                !
 ! R24   R(15,18)                1.4021         estimate D2E/DX2                !
 ! R25   R(16,17)                1.3912         estimate D2E/DX2                !
 ! R26   R(16,19)                1.093          estimate D2E/DX2                !
 ! R27   R(17,29)                1.0926         estimate D2E/DX2                !
 ! R28   R(17,57)                1.3955         estimate D2E/DX2                !
 ! R29   R(18,20)                1.0922         estimate D2E/DX2                !
 ! R30   R(18,58)                1.3915         estimate D2E/DX2                !
 ! R31   R(19,61)                3.0355         estimate D2E/DX2                !
 ! R32   R(21,27)                1.3422         estimate D2E/DX2                !
 ! R33   R(21,54)                1.337          estimate D2E/DX2                !
 ! R34   R(22,23)                1.3922         estimate D2E/DX2                !
 ! R35   R(22,24)                1.0914         estimate D2E/DX2                !
 ! R36   R(22,27)                1.3888         estimate D2E/DX2                !
 ! R37   R(23,52)                1.3944         estimate D2E/DX2                !
 ! R38   R(23,53)                1.0931         estimate D2E/DX2                !
 ! R39   R(25,26)                1.092          estimate D2E/DX2                !
 ! R40   R(27,28)                1.0921         estimate D2E/DX2                !
 ! R41   R(31,39)                1.7773         estimate D2E/DX2                !
 ! R42   R(31,43)                1.7775         estimate D2E/DX2                !
 ! R43   R(32,38)                1.7748         estimate D2E/DX2                !
 ! R44   R(32,44)                1.775          estimate D2E/DX2                !
 ! R45   R(33,34)                1.4921         estimate D2E/DX2                !
 ! R46   R(34,35)                1.3979         estimate D2E/DX2                !
 ! R47   R(34,39)                1.4073         estimate D2E/DX2                !
 ! R48   R(35,36)                1.3933         estimate D2E/DX2                !
 ! R49   R(35,40)                1.0928         estimate D2E/DX2                !
 ! R50   R(36,37)                1.3921         estimate D2E/DX2                !
 ! R51   R(36,41)                1.0924         estimate D2E/DX2                !
 ! R52   R(37,38)                1.3969         estimate D2E/DX2                !
 ! R53   R(37,42)                1.0928         estimate D2E/DX2                !
 ! R54   R(38,39)                1.4011         estimate D2E/DX2                !
 ! R55   R(43,44)                1.4012         estimate D2E/DX2                !
 ! R56   R(43,48)                1.408          estimate D2E/DX2                !
 ! R57   R(44,45)                1.3966         estimate D2E/DX2                !
 ! R58   R(45,46)                1.3919         estimate D2E/DX2                !
 ! R59   R(45,49)                1.0928         estimate D2E/DX2                !
 ! R60   R(46,47)                1.3934         estimate D2E/DX2                !
 ! R61   R(46,50)                1.0925         estimate D2E/DX2                !
 ! R62   R(47,48)                1.3985         estimate D2E/DX2                !
 ! R63   R(47,51)                1.0929         estimate D2E/DX2                !
 ! R64   R(48,52)                1.4927         estimate D2E/DX2                !
 ! R65   R(52,54)                1.3956         estimate D2E/DX2                !
 ! R66   R(54,55)                1.0908         estimate D2E/DX2                !
 ! R67   R(57,58)                1.3957         estimate D2E/DX2                !
 ! R68   R(57,60)                1.093          estimate D2E/DX2                !
 ! R69   R(58,59)                1.0925         estimate D2E/DX2                !
 ! A1    A(2,1,4)               95.9628         estimate D2E/DX2                !
 ! A2    A(2,1,6)               89.9612         estimate D2E/DX2                !
 ! A3    A(2,1,61)              82.7321         estimate D2E/DX2                !
 ! A4    A(4,1,6)               89.6449         estimate D2E/DX2                !
 ! A5    A(4,1,7)               88.8898         estimate D2E/DX2                !
 ! A6    A(4,1,61)              84.3664         estimate D2E/DX2                !
 ! A7    A(6,1,7)               94.5798         estimate D2E/DX2                !
 ! A8    A(7,1,61)              93.3009         estimate D2E/DX2                !
 ! A9    A(1,2,19)              98.1695         estimate D2E/DX2                !
 ! A10   A(1,4,19)              97.0241         estimate D2E/DX2                !
 ! A11   A(5,4,19)              86.2505         estimate D2E/DX2                !
 ! A12   A(1,7,10)             119.6445         estimate D2E/DX2                !
 ! A13   A(1,7,25)             122.6906         estimate D2E/DX2                !
 ! A14   A(10,7,25)            117.5691         estimate D2E/DX2                !
 ! A15   A(9,8,11)             121.1935         estimate D2E/DX2                !
 ! A16   A(9,8,25)             119.3683         estimate D2E/DX2                !
 ! A17   A(11,8,25)            119.4277         estimate D2E/DX2                !
 ! A18   A(8,9,12)             121.006          estimate D2E/DX2                !
 ! A19   A(8,9,33)             118.5135         estimate D2E/DX2                !
 ! A20   A(12,9,33)            120.4756         estimate D2E/DX2                !
 ! A21   A(7,10,33)            123.9825         estimate D2E/DX2                !
 ! A22   A(7,10,56)            117.5845         estimate D2E/DX2                !
 ! A23   A(33,10,56)           118.432          estimate D2E/DX2                !
 ! A24   A(14,15,16)           119.6363         estimate D2E/DX2                !
 ! A25   A(14,15,18)           119.7583         estimate D2E/DX2                !
 ! A26   A(16,15,18)           120.604          estimate D2E/DX2                !
 ! A27   A(15,16,17)           119.3727         estimate D2E/DX2                !
 ! A28   A(15,16,19)           120.68           estimate D2E/DX2                !
 ! A29   A(17,16,19)           119.9467         estimate D2E/DX2                !
 ! A30   A(16,17,29)           119.4958         estimate D2E/DX2                !
 ! A31   A(16,17,57)           120.17           estimate D2E/DX2                !
 ! A32   A(29,17,57)           120.3343         estimate D2E/DX2                !
 ! A33   A(15,18,20)           119.8835         estimate D2E/DX2                !
 ! A34   A(15,18,58)           119.4005         estimate D2E/DX2                !
 ! A35   A(20,18,58)           120.7158         estimate D2E/DX2                !
 ! A36   A(2,19,4)              54.932          estimate D2E/DX2                !
 ! A37   A(2,19,16)            139.3717         estimate D2E/DX2                !
 ! A38   A(2,19,61)             60.7898         estimate D2E/DX2                !
 ! A39   A(3,19,4)              75.9049         estimate D2E/DX2                !
 ! A40   A(3,19,16)            123.756          estimate D2E/DX2                !
 ! A41   A(3,19,61)             75.4013         estimate D2E/DX2                !
 ! A42   A(4,19,16)            125.3699         estimate D2E/DX2                !
 ! A43   A(4,19,61)             61.389          estimate D2E/DX2                !
 ! A44   A(16,19,61)           159.8335         estimate D2E/DX2                !
 ! A45   A(27,21,54)           117.5726         estimate D2E/DX2                !
 ! A46   A(23,22,24)           121.1909         estimate D2E/DX2                !
 ! A47   A(23,22,27)           119.38           estimate D2E/DX2                !
 ! A48   A(24,22,27)           119.4219         estimate D2E/DX2                !
 ! A49   A(22,23,52)           118.5461         estimate D2E/DX2                !
 ! A50   A(22,23,53)           120.9063         estimate D2E/DX2                !
 ! A51   A(52,23,53)           120.5423         estimate D2E/DX2                !
 ! A52   A(7,25,8)             122.6384         estimate D2E/DX2                !
 ! A53   A(7,25,26)            116.174          estimate D2E/DX2                !
 ! A54   A(8,25,26)            121.1831         estimate D2E/DX2                !
 ! A55   A(21,27,22)           122.6384         estimate D2E/DX2                !
 ! A56   A(21,27,28)           116.121          estimate D2E/DX2                !
 ! A57   A(22,27,28)           121.236          estimate D2E/DX2                !
 ! A58   A(39,31,43)           100.9054         estimate D2E/DX2                !
 ! A59   A(38,32,44)           101.3948         estimate D2E/DX2                !
 ! A60   A(9,33,10)            117.8435         estimate D2E/DX2                !
 ! A61   A(9,33,34)            123.2681         estimate D2E/DX2                !
 ! A62   A(10,33,34)           118.87           estimate D2E/DX2                !
 ! A63   A(33,34,35)           120.6916         estimate D2E/DX2                !
 ! A64   A(33,34,39)           120.34           estimate D2E/DX2                !
 ! A65   A(35,34,39)           118.9645         estimate D2E/DX2                !
 ! A66   A(34,35,36)           120.687          estimate D2E/DX2                !
 ! A67   A(34,35,40)           119.1002         estimate D2E/DX2                !
 ! A68   A(36,35,40)           120.2003         estimate D2E/DX2                !
 ! A69   A(35,36,37)           120.2851         estimate D2E/DX2                !
 ! A70   A(35,36,41)           119.9618         estimate D2E/DX2                !
 ! A71   A(37,36,41)           119.7431         estimate D2E/DX2                !
 ! A72   A(36,37,38)           119.7299         estimate D2E/DX2                !
 ! A73   A(36,37,42)           120.4273         estimate D2E/DX2                !
 ! A74   A(38,37,42)           119.84           estimate D2E/DX2                !
 ! A75   A(32,38,37)           119.1944         estimate D2E/DX2                !
 ! A76   A(32,38,39)           120.6208         estimate D2E/DX2                !
 ! A77   A(37,38,39)           120.1387         estimate D2E/DX2                !
 ! A78   A(31,39,34)           119.941          estimate D2E/DX2                !
 ! A79   A(31,39,38)           119.8422         estimate D2E/DX2                !
 ! A80   A(34,39,38)           120.1244         estimate D2E/DX2                !
 ! A81   A(31,43,44)           119.6704         estimate D2E/DX2                !
 ! A82   A(31,43,48)           120.0931         estimate D2E/DX2                !
 ! A83   A(44,43,48)           120.1358         estimate D2E/DX2                !
 ! A84   A(32,44,43)           120.7731         estimate D2E/DX2                !
 ! A85   A(32,44,45)           119.0046         estimate D2E/DX2                !
 ! A86   A(43,44,45)           120.1794         estimate D2E/DX2                !
 ! A87   A(44,45,46)           119.7216         estimate D2E/DX2                !
 ! A88   A(44,45,49)           119.7278         estimate D2E/DX2                !
 ! A89   A(46,45,49)           120.5485         estimate D2E/DX2                !
 ! A90   A(45,46,47)           120.2542         estimate D2E/DX2                !
 ! A91   A(45,46,50)           119.7199         estimate D2E/DX2                !
 ! A92   A(47,46,50)           120.0134         estimate D2E/DX2                !
 ! A93   A(46,47,48)           120.7756         estimate D2E/DX2                !
 ! A94   A(46,47,51)           120.1137         estimate D2E/DX2                !
 ! A95   A(48,47,51)           119.0966         estimate D2E/DX2                !
 ! A96   A(43,48,47)           118.8443         estimate D2E/DX2                !
 ! A97   A(43,48,52)           120.6785         estimate D2E/DX2                !
 ! A98   A(47,48,52)           120.4734         estimate D2E/DX2                !
 ! A99   A(23,52,48)           123.2561         estimate D2E/DX2                !
 ! A100  A(23,52,54)           117.773          estimate D2E/DX2                !
 ! A101  A(48,52,54)           118.9649         estimate D2E/DX2                !
 ! A102  A(21,54,52)           124.0307         estimate D2E/DX2                !
 ! A103  A(21,54,55)           117.6525         estimate D2E/DX2                !
 ! A104  A(52,54,55)           118.3165         estimate D2E/DX2                !
 ! A105  A(17,57,58)           120.321          estimate D2E/DX2                !
 ! A106  A(17,57,60)           119.8554         estimate D2E/DX2                !
 ! A107  A(58,57,60)           119.8236         estimate D2E/DX2                !
 ! A108  A(18,58,57)           120.1318         estimate D2E/DX2                !
 ! A109  A(18,58,59)           119.6694         estimate D2E/DX2                !
 ! A110  A(57,58,59)           120.1987         estimate D2E/DX2                !
 ! A111  A(1,61,19)             79.5959         estimate D2E/DX2                !
 ! A112  L(2,1,7,4,-1)         184.8526         estimate D2E/DX2                !
 ! A113  L(6,1,61,2,-1)        172.6933         estimate D2E/DX2                !
 ! A114  L(1,2,3,13,-1)        183.2902         estimate D2E/DX2                !
 ! A115  L(1,4,5,19,-1)        183.2746         estimate D2E/DX2                !
 ! A116  L(1,6,30,10,-1)       183.7554         estimate D2E/DX2                !
 ! A117  L(13,14,15,1,-1)      178.881          estimate D2E/DX2                !
 ! A118  L(2,1,7,4,-2)         184.5116         estimate D2E/DX2                !
 ! A119  L(6,1,61,2,-2)        173.161          estimate D2E/DX2                !
 ! A120  L(1,2,3,13,-2)        180.7791         estimate D2E/DX2                !
 ! A121  L(1,4,5,19,-2)        182.4104         estimate D2E/DX2                !
 ! A122  L(1,6,30,10,-2)       177.6334         estimate D2E/DX2                !
 ! A123  L(13,14,15,1,-2)      180.2977         estimate D2E/DX2                !
 ! D1    D(4,1,2,19)            32.7909         estimate D2E/DX2                !
 ! D2    D(6,1,2,19)           122.4298         estimate D2E/DX2                !
 ! D3    D(61,1,2,19)          -50.7312         estimate D2E/DX2                !
 ! D4    D(19,2,7,10)          146.7512         estimate D2E/DX2                !
 ! D5    D(19,2,7,25)          -40.2483         estimate D2E/DX2                !
 ! D6    D(2,1,4,19)           -32.2576         estimate D2E/DX2                !
 ! D7    D(6,1,4,19)          -122.1815         estimate D2E/DX2                !
 ! D8    D(7,1,4,19)           143.2308         estimate D2E/DX2                !
 ! D9    D(61,1,4,19)           49.8035         estimate D2E/DX2                !
 ! D10   D(4,1,7,10)           111.5057         estimate D2E/DX2                !
 ! D11   D(4,1,7,25)           -72.1415         estimate D2E/DX2                !
 ! D12   D(6,1,7,10)            21.951          estimate D2E/DX2                !
 ! D13   D(6,1,7,25)          -161.6962         estimate D2E/DX2                !
 ! D14   D(61,1,7,10)         -164.2027         estimate D2E/DX2                !
 ! D15   D(61,1,7,25)           12.1502         estimate D2E/DX2                !
 ! D16   D(2,1,61,19)           48.3461         estimate D2E/DX2                !
 ! D17   D(4,1,61,19)          -48.4197         estimate D2E/DX2                !
 ! D18   D(7,1,61,19)         -136.9762         estimate D2E/DX2                !
 ! D19   D(1,2,19,4)           -23.9479         estimate D2E/DX2                !
 ! D20   D(1,2,19,16)         -129.4898         estimate D2E/DX2                !
 ! D21   D(1,2,19,61)           49.922          estimate D2E/DX2                !
 ! D22   D(1,4,19,2)            23.9132         estimate D2E/DX2                !
 ! D23   D(1,4,19,3)            31.9955         estimate D2E/DX2                !
 ! D24   D(1,4,19,16)          153.6191         estimate D2E/DX2                !
 ! D25   D(1,4,19,61)          -48.8524         estimate D2E/DX2                !
 ! D26   D(5,4,19,2)          -158.4972         estimate D2E/DX2                !
 ! D27   D(5,4,19,3)          -150.4148         estimate D2E/DX2                !
 ! D28   D(5,4,19,16)          -28.7913         estimate D2E/DX2                !
 ! D29   D(5,4,19,61)          128.7373         estimate D2E/DX2                !
 ! D30   D(1,7,10,33)          173.5332         estimate D2E/DX2                !
 ! D31   D(1,7,10,56)           -6.1013         estimate D2E/DX2                !
 ! D32   D(25,7,10,33)          -3.0045         estimate D2E/DX2                !
 ! D33   D(25,7,10,56)         177.361          estimate D2E/DX2                !
 ! D34   D(1,7,25,8)          -175.843          estimate D2E/DX2                !
 ! D35   D(1,7,25,26)            3.3981         estimate D2E/DX2                !
 ! D36   D(10,7,25,8)            0.5813         estimate D2E/DX2                !
 ! D37   D(10,7,25,26)         179.8224         estimate D2E/DX2                !
 ! D38   D(11,8,9,12)           -0.9074         estimate D2E/DX2                !
 ! D39   D(11,8,9,33)          179.8938         estimate D2E/DX2                !
 ! D40   D(25,8,9,12)          177.9033         estimate D2E/DX2                !
 ! D41   D(25,8,9,33)           -1.2955         estimate D2E/DX2                !
 ! D42   D(9,8,25,7)             1.5285         estimate D2E/DX2                !
 ! D43   D(9,8,25,26)         -177.6753         estimate D2E/DX2                !
 ! D44   D(11,8,25,7)         -179.6396         estimate D2E/DX2                !
 ! D45   D(11,8,25,26)           1.1566         estimate D2E/DX2                !
 ! D46   D(8,9,33,10)           -0.8906         estimate D2E/DX2                !
 ! D47   D(8,9,33,34)          177.5264         estimate D2E/DX2                !
 ! D48   D(12,9,33,10)         179.9062         estimate D2E/DX2                !
 ! D49   D(12,9,33,34)          -1.6769         estimate D2E/DX2                !
 ! D50   D(7,10,33,9)            3.1802         estimate D2E/DX2                !
 ! D51   D(7,10,33,34)        -175.3084         estimate D2E/DX2                !
 ! D52   D(56,10,33,9)        -177.1881         estimate D2E/DX2                !
 ! D53   D(56,10,33,34)          4.3233         estimate D2E/DX2                !
 ! D54   D(14,15,16,17)       -179.5625         estimate D2E/DX2                !
 ! D55   D(14,15,16,19)          0.1615         estimate D2E/DX2                !
 ! D56   D(18,15,16,17)          0.0129         estimate D2E/DX2                !
 ! D57   D(18,15,16,19)        179.7369         estimate D2E/DX2                !
 ! D58   D(14,15,18,20)         -0.2752         estimate D2E/DX2                !
 ! D59   D(14,15,18,58)        179.5764         estimate D2E/DX2                !
 ! D60   D(16,15,18,20)       -179.85           estimate D2E/DX2                !
 ! D61   D(16,15,18,58)          0.0015         estimate D2E/DX2                !
 ! D62   D(15,16,17,29)        179.9738         estimate D2E/DX2                !
 ! D63   D(15,16,17,57)         -0.0115         estimate D2E/DX2                !
 ! D64   D(19,16,17,29)          0.2478         estimate D2E/DX2                !
 ! D65   D(19,16,17,57)       -179.7376         estimate D2E/DX2                !
 ! D66   D(15,16,19,2)          26.4476         estimate D2E/DX2                !
 ! D67   D(15,16,19,3)          47.8185         estimate D2E/DX2                !
 ! D68   D(15,16,19,4)         -48.7975         estimate D2E/DX2                !
 ! D69   D(15,16,19,61)       -152.0629         estimate D2E/DX2                !
 ! D70   D(17,16,19,2)        -153.8299         estimate D2E/DX2                !
 ! D71   D(17,16,19,3)        -132.4591         estimate D2E/DX2                !
 ! D72   D(17,16,19,4)         130.9249         estimate D2E/DX2                !
 ! D73   D(17,16,19,61)         27.6595         estimate D2E/DX2                !
 ! D74   D(16,17,57,58)         -0.0043         estimate D2E/DX2                !
 ! D75   D(16,17,57,60)        179.9354         estimate D2E/DX2                !
 ! D76   D(29,17,57,58)       -179.9895         estimate D2E/DX2                !
 ! D77   D(29,17,57,60)         -0.0498         estimate D2E/DX2                !
 ! D78   D(15,18,58,57)         -0.0174         estimate D2E/DX2                !
 ! D79   D(15,18,58,59)       -179.9059         estimate D2E/DX2                !
 ! D80   D(20,18,58,57)        179.8329         estimate D2E/DX2                !
 ! D81   D(20,18,58,59)         -0.0556         estimate D2E/DX2                !
 ! D82   D(2,19,61,1)          -32.0536         estimate D2E/DX2                !
 ! D83   D(3,19,61,1)          -50.1529         estimate D2E/DX2                !
 ! D84   D(4,19,61,1)           31.5335         estimate D2E/DX2                !
 ! D85   D(16,19,61,1)         146.8353         estimate D2E/DX2                !
 ! D86   D(54,21,27,22)         -0.2668         estimate D2E/DX2                !
 ! D87   D(54,21,27,28)       -179.4932         estimate D2E/DX2                !
 ! D88   D(27,21,54,52)          2.382          estimate D2E/DX2                !
 ! D89   D(27,21,54,55)       -177.8042         estimate D2E/DX2                !
 ! D90   D(24,22,23,52)        179.9172         estimate D2E/DX2                !
 ! D91   D(24,22,23,53)          0.7473         estimate D2E/DX2                !
 ! D92   D(27,22,23,52)          0.8952         estimate D2E/DX2                !
 ! D93   D(27,22,23,53)       -178.2747         estimate D2E/DX2                !
 ! D94   D(23,22,27,21)         -1.3392         estimate D2E/DX2                !
 ! D95   D(23,22,27,28)        177.8484         estimate D2E/DX2                !
 ! D96   D(24,22,27,21)        179.6213         estimate D2E/DX2                !
 ! D97   D(24,22,27,28)         -1.1911         estimate D2E/DX2                !
 ! D98   D(22,23,52,48)       -178.0841         estimate D2E/DX2                !
 ! D99   D(22,23,52,54)          1.0105         estimate D2E/DX2                !
 ! D100  D(53,23,52,48)          1.0889         estimate D2E/DX2                !
 ! D101  D(53,23,52,54)       -179.8165         estimate D2E/DX2                !
 ! D102  D(43,31,39,34)       -137.1711         estimate D2E/DX2                !
 ! D103  D(43,31,39,38)         46.3193         estimate D2E/DX2                !
 ! D104  D(39,31,43,44)        -46.6337         estimate D2E/DX2                !
 ! D105  D(39,31,43,48)        137.0095         estimate D2E/DX2                !
 ! D106  D(44,32,38,37)        139.1077         estimate D2E/DX2                !
 ! D107  D(44,32,38,39)        -43.3572         estimate D2E/DX2                !
 ! D108  D(38,32,44,43)         43.0284         estimate D2E/DX2                !
 ! D109  D(38,32,44,45)       -139.3508         estimate D2E/DX2                !
 ! D110  D(9,33,34,35)          73.7459         estimate D2E/DX2                !
 ! D111  D(9,33,34,39)        -106.979          estimate D2E/DX2                !
 ! D112  D(10,33,34,35)       -107.8526         estimate D2E/DX2                !
 ! D113  D(10,33,34,39)         71.4226         estimate D2E/DX2                !
 ! D114  D(33,34,35,36)        177.25           estimate D2E/DX2                !
 ! D115  D(33,34,35,40)         -1.4718         estimate D2E/DX2                !
 ! D116  D(39,34,35,36)         -2.0351         estimate D2E/DX2                !
 ! D117  D(39,34,35,40)        179.2432         estimate D2E/DX2                !
 ! D118  D(33,34,39,31)          6.606          estimate D2E/DX2                !
 ! D119  D(33,34,39,38)       -176.8943         estimate D2E/DX2                !
 ! D120  D(35,34,39,31)       -174.1064         estimate D2E/DX2                !
 ! D121  D(35,34,39,38)          2.3933         estimate D2E/DX2                !
 ! D122  D(34,35,36,37)         -0.2681         estimate D2E/DX2                !
 ! D123  D(34,35,36,41)       -179.112          estimate D2E/DX2                !
 ! D124  D(40,35,36,37)        178.4396         estimate D2E/DX2                !
 ! D125  D(40,35,36,41)         -0.4043         estimate D2E/DX2                !
 ! D126  D(35,36,37,38)          2.2254         estimate D2E/DX2                !
 ! D127  D(35,36,37,42)       -178.3889         estimate D2E/DX2                !
 ! D128  D(41,36,37,38)       -178.9281         estimate D2E/DX2                !
 ! D129  D(41,36,37,42)          0.4576         estimate D2E/DX2                !
 ! D130  D(36,37,38,32)        175.6959         estimate D2E/DX2                !
 ! D131  D(36,37,38,39)         -1.8514         estimate D2E/DX2                !
 ! D132  D(42,37,38,32)         -3.6934         estimate D2E/DX2                !
 ! D133  D(42,37,38,39)        178.7593         estimate D2E/DX2                !
 ! D134  D(32,38,39,31)         -1.4768         estimate D2E/DX2                !
 ! D135  D(32,38,39,34)       -177.9799         estimate D2E/DX2                !
 ! D136  D(37,38,39,31)        176.0351         estimate D2E/DX2                !
 ! D137  D(37,38,39,34)         -0.468          estimate D2E/DX2                !
 ! D138  D(31,43,44,32)          2.1284         estimate D2E/DX2                !
 ! D139  D(31,43,44,45)       -175.4646         estimate D2E/DX2                !
 ! D140  D(48,43,44,32)        178.4836         estimate D2E/DX2                !
 ! D141  D(48,43,44,45)          0.8906         estimate D2E/DX2                !
 ! D142  D(31,43,48,47)        173.4632         estimate D2E/DX2                !
 ! D143  D(31,43,48,52)         -7.2456         estimate D2E/DX2                !
 ! D144  D(44,43,48,47)         -2.8765         estimate D2E/DX2                !
 ! D145  D(44,43,48,52)        176.4148         estimate D2E/DX2                !
 ! D146  D(32,44,45,46)       -175.84           estimate D2E/DX2                !
 ! D147  D(32,44,45,49)          3.6399         estimate D2E/DX2                !
 ! D148  D(43,44,45,46)          1.7953         estimate D2E/DX2                !
 ! D149  D(43,44,45,49)       -178.7248         estimate D2E/DX2                !
 ! D150  D(44,45,46,47)         -2.4644         estimate D2E/DX2                !
 ! D151  D(44,45,46,50)        178.8206         estimate D2E/DX2                !
 ! D152  D(49,45,46,47)        178.06           estimate D2E/DX2                !
 ! D153  D(49,45,46,50)         -0.6549         estimate D2E/DX2                !
 ! D154  D(45,46,47,48)          0.4379         estimate D2E/DX2                !
 ! D155  D(45,46,47,51)       -178.1852         estimate D2E/DX2                !
 ! D156  D(50,46,47,48)        179.1491         estimate D2E/DX2                !
 ! D157  D(50,46,47,51)          0.526          estimate D2E/DX2                !
 ! D158  D(46,47,48,43)          2.2254         estimate D2E/DX2                !
 ! D159  D(46,47,48,52)       -177.0673         estimate D2E/DX2                !
 ! D160  D(51,47,48,43)       -179.1377         estimate D2E/DX2                !
 ! D161  D(51,47,48,52)          1.5695         estimate D2E/DX2                !
 ! D162  D(43,48,52,23)        110.7417         estimate D2E/DX2                !
 ! D163  D(43,48,52,54)        -68.3427         estimate D2E/DX2                !
 ! D164  D(47,48,52,23)        -69.9786         estimate D2E/DX2                !
 ! D165  D(47,48,52,54)        110.937          estimate D2E/DX2                !
 ! D166  D(23,52,54,21)         -2.7708         estimate D2E/DX2                !
 ! D167  D(23,52,54,55)        177.4165         estimate D2E/DX2                !
 ! D168  D(48,52,54,21)        176.3638         estimate D2E/DX2                !
 ! D169  D(48,52,54,55)         -3.4488         estimate D2E/DX2                !
 ! D170  D(17,57,58,18)          0.0189         estimate D2E/DX2                !
 ! D171  D(17,57,58,59)        179.9068         estimate D2E/DX2                !
 ! D172  D(60,57,58,18)       -179.9208         estimate D2E/DX2                !
 ! D173  D(60,57,58,59)         -0.0329         estimate D2E/DX2                !
 --------------------------------------------------------------------------------
 Trust Radius=3.00D-01 FncErr=1.00D-07 GrdErr=1.00D-06 EigMax=2.50D+02 EigMin=1.00D-04
 Number of steps in this run=    366 maximum allowed number of steps=    366.
 GradGradGradGradGradGradGradGradGradGradGradGradGradGradGradGradGradGrad

 Stoichiometry    C32H19BrMnN3O3S2
 Framework group  C1[X(C32H19BrMnN3O3S2)]
 Deg. of freedom   177
 Full point group                 C1      NOp   1
 Largest Abelian subgroup         C1      NOp   1
 Largest concise Abelian subgroup C1      NOp   1
                         Standard orientation:                         
 ---------------------------------------------------------------------
 Center     Atomic      Atomic             Coordinates (Angstroms)
 Number     Number       Type             X           Y           Z
 ---------------------------------------------------------------------
      1         25           0        1.512119   -0.112491    0.000735
      2          6           0        2.604255   -1.460472   -0.547079
      3          8           0        3.256554   -2.349759   -0.851215
      4          6           0        2.657999    1.236912   -0.408383
      5          8           0        3.326083    2.138294   -0.633733
      6          6           0        0.817008   -0.007191   -1.648196
      7          7           0        0.162011    1.348183    0.850922
      8          6           0       -0.495720    2.849604    2.598780
      9          6           0       -1.725928    3.071185    1.986529
     10          6           0       -1.004623    1.599941    0.248312
     11          1           0       -0.237698    3.335625    3.541184
     12          1           0       -2.471744    3.727389    2.442528
     13          7           0        4.113667   -0.076970   -3.190700
     14          6           0        5.068117    0.011456   -2.541984
     15          6           0        6.239611    0.128492   -1.711720
     16          6           0        6.122910   -0.023046   -0.322293
     17          6           0        7.256245    0.100153    0.475159
     18          6           0        7.483677    0.401369   -2.298012
     19          1           0        5.153011   -0.231543    0.136450
     20          1           0        7.560644    0.519571   -3.381066
     21          7           0        0.046035   -1.572892    0.665033
     22          6           0       -0.683598   -3.292678    2.165259
     23          6           0       -1.934566   -3.335563    1.555822
     24          1           0       -0.443806   -3.940985    3.009812
     25          6           0        0.409665    1.975079    2.011659
     26          1           0        1.367534    1.750593    2.485535
     27          6           0        0.269209   -2.394437    1.702671
     28          1           0        1.247772   -2.310830    2.180348
     29          1           0        7.167558   -0.017094    1.557856
     30          8           0        0.452711    0.053606   -2.737094
     31         16           0       -3.881105    0.022433    1.038179
     32         16           0       -6.573317    0.228501   -0.660071
     33          6           0       -1.996298    2.422983    0.782161
     34          6           0       -3.298378    2.541504    0.063156
     35          6           0       -3.631673    3.714276   -0.620648
     36          6           0       -4.821889    3.804545   -1.339295
     37          6           0       -5.695123    2.721575   -1.390166
     38          6           0       -5.396618    1.557013   -0.678888
     39          6           0       -4.204478    1.464814    0.051364
     40          1           0       -2.935222    4.556262   -0.602557
     41          1           0       -5.063746    4.721704   -1.881298
     42          1           0       -6.616690    2.780666   -1.974566
     43          6           0       -4.314200   -1.269733   -0.102940
     44          6           0       -5.510770   -1.183468   -0.826871
     45          6           0       -5.907918   -2.235826   -1.654755
     46          6           0       -5.129059   -3.386991   -1.729243
     47          6           0       -3.931515   -3.471376   -1.021906
     48          6           0       -3.497054   -2.410272   -0.221270
     49          1           0       -6.831974   -2.152074   -2.232122
     50          1           0       -5.449728   -4.217872   -2.361939
     51          1           0       -3.307175   -4.364465   -1.105343
     52          6           0       -2.182178   -2.481415    0.481798
     53          1           0       -2.712400   -4.012988    1.917582
     54          6           0       -1.146753   -1.643597    0.065081
     55          1           0       -1.316546   -1.002701   -0.801084
     56          1           0       -1.187648    1.124977   -0.716443
     57          6           0        8.495934    0.371727   -0.105122
     58          6           0        8.608864    0.521660   -1.488147
     59          1           0        9.580129    0.735754   -1.940189
     60          1           0        9.382760    0.468517    0.526330
     61         35           0        2.939915   -0.305369    2.212726
 ---------------------------------------------------------------------
 Rotational constants (GHZ):           0.1343837           0.0384945           0.0364404
 General basis read from cards:  (5D, 7F)
 There are   800 symmetry adapted cartesian basis functions of A   symmetry.
 There are   749 symmetry adapted basis functions of A   symmetry.
   749 basis functions,  1349 primitive gaussians,   800 cartesian basis functions
   174 alpha electrons      174 beta electrons
       nuclear repulsion energy      6537.7587228405 Hartrees.
 NAtoms=   61 NActive=   61 NUniq=   61 SFac= 1.00D+00 NAtFMM=   60 NAOKFM=T Big=T
 Integral buffers will be    131072 words long.
 Raffenetti 2 integral format.
 Two-electron integral symmetry is turned on.
 Nuclear repulsion after empirical dispersion term =     6537.6975781489 Hartrees.
 ------------------------------------------------------------------------------
 Polarizable Continuum Model (PCM)
 =================================
 Model                : PCM.
 Atomic radii         : UFF (Universal Force Field).
 Polarization charges : Total charges.
 Charge compensation  : None.
 Solution method      : On-the-fly selection.
 Cavity type          : Scaled VdW (van der Waals Surface) (Alpha=1.100).
 Cavity algorithm     : GePol (No added spheres)
                        Default sphere list used, NSphG=   61.
                        Lebedev-Laikov grids with approx.  5.0 points / Ang**2.
                        Smoothing algorithm: York/Karplus (Gamma=1.0000).
                        Polarization charges: spherical gaussians, with
                                              point-specific exponents (IZeta= 3).
                        Self-potential: point-specific (ISelfS= 7).
                        Self-field    : sphere-specific E.n sum rule (ISelfD= 2).
 1st derivatives      : Analytical E(r).r(x)/FMM algorithm (CHGder, D1EAlg=3).
                        Cavity 1st derivative terms included.
 Solvent              : TetraHydroFuran, Eps=   7.425700 Eps(inf)=   1.974025
 ------------------------------------------------------------------------------
 One-electron integrals computed using PRISM.
 PrsmSu:  requested number of processors reduced to:  11 ShMem   1 Linda.
 NBasis=   749 RedAO= T EigKep=  2.26D-04  NBF=   749
 NBsUse=   749 1.00D-06 EigRej= -1.00D+00 NBFU=   749
 ExpMin= 3.93D-02 ExpMax= 2.77D+05 ExpMxC= 1.70D+04 IAcc=3 IRadAn=         5 AccDes= 0.00D+00
 Harris functional with IExCor= 4639 and IRadAn=       5 diagonalized for initial guess.
 HarFok:  IExCor= 4639 AccDes= 0.00D+00 IRadAn=         5 IDoV= 1 UseB2=F ITyADJ=14
 ICtDFT=  3500011 ScaDFX=  1.000000  1.000000  1.000000  1.000000
 FoFCou: FMM=F IPFlag=           0 FMFlag=      100000 FMFlg1=        2001
         NFxFlg=           0 DoJE=T BraDBF=F KetDBF=T FulRan=T
         wScrn=  0.000000 ICntrl=       500 IOpCl=  0 I1Cent=   200000004 NGrid=           0
         NMat0=    1 NMatS0=      1 NMatT0=    0 NMatD0=    1 NMtDS0=    0 NMtDT0=    0
 Petite list used in FoFCou.
 Requested convergence on RMS density matrix=1.00D-08 within 128 cycles.
 Requested convergence on MAX density matrix=1.00D-06.
 Requested convergence on             energy=1.00D-06.
 No special actions if energy rises.
 CoulSu:  requested number of processors reduced to:   9 ShMem   1 Linda.
 Inv3:  Mode=1 IEnd=    69639372.
 Iteration    1 A*A^-1 deviation from unit magnitude is 3.66D-15 for   2599.
 Iteration    1 A*A^-1 deviation from orthogonality  is 2.35D-15 for   2214    854.
 Iteration    1 A^-1*A deviation from unit magnitude is 3.66D-15 for   2599.
 Iteration    1 A^-1*A deviation from orthogonality  is 2.22D-15 for   4216   1426.
 CoulSu:  requested number of processors reduced to:   9 ShMem   1 Linda.
 CoulSu:  requested number of processors reduced to:   9 ShMem   1 Linda.
 Error on total polarization charges =  0.01700
 SCF Done:  E(RwB97XD) =  -6140.25576988     A.U. after   19 cycles
            NFock= 19  Conv=0.69D-08     -V/T= 2.0038

 **********************************************************************

            Population analysis using the SCF density.

 **********************************************************************

 Orbital symmetries:
       Occupied  (A) (A) (A) (A) (A) (A) (A) (A) (A) (A) (A) (A)
                 (A) (A) (A) (A) (A) (A) (A) (A) (A) (A) (A) (A)
                 (A) (A) (A) (A) (A) (A) (A) (A) (A) (A) (A) (A)
                 (A) (A) (A) (A) (A) (A) (A) (A) (A) (A) (A) (A)
                 (A) (A) (A) (A) (A) (A) (A) (A) (A) (A) (A) (A)
                 (A) (A) (A) (A) (A) (A) (A) (A) (A) (A) (A) (A)
                 (A) (A) (A) (A) (A) (A) (A) (A) (A) (A) (A) (A)
                 (A) (A) (A) (A) (A) (A) (A) (A) (A) (A) (A) (A)
                 (A) (A) (A) (A) (A) (A) (A) (A) (A) (A) (A) (A)
                 (A) (A) (A) (A) (A) (A) (A) (A) (A) (A) (A) (A)
                 (A) (A) (A) (A) (A) (A) (A) (A) (A) (A) (A) (A)
                 (A) (A) (A) (A) (A) (A) (A) (A) (A) (A) (A) (A)
                 (A) (A) (A) (A) (A) (A) (A) (A) (A) (A) (A) (A)
                 (A) (A) (A) (A) (A) (A) (A) (A) (A) (A) (A) (A)
                 (A) (A) (A) (A) (A) (A)
       Virtual   (A) (A) (A) (A) (A) (A) (A) (A) (A) (A) (A) (A)
                 (A) (A) (A) (A) (A) (A) (A) (A) (A) (A) (A) (A)
                 (A) (A) (A) (A) (A) (A) (A) (A) (A) (A) (A) (A)
                 (A) (A) (A) (A) (A) (A) (A) (A) (A) (A) (A) (A)
                 (A) (A) (A) (A) (A) (A) (A) (A) (A) (A) (A) (A)
                 (A) (A) (A) (A) (A) (A) (A) (A) (A) (A) (A) (A)
                 (A) (A) (A) (A) (A) (A) (A) (A) (A) (A) (A) (A)
                 (A) (A) (A) (A) (A) (A) (A) (A) (A) (A) (A) (A)
                 (A) (A) (A) (A) (A) (A) (A) (A) (A) (A) (A) (A)
                 (A) (A) (A) (A) (A) (A) (A) (A) (A) (A) (A) (A)
                 (A) (A) (A) (A) (A) (A) (A) (A) (A) (A) (A) (A)
                 (A) (A) (A) (A) (A) (A) (A) (A) (A) (A) (A) (A)
                 (A) (A) (A) (A) (A) (A) (A) (A) (A) (A) (A) (A)
                 (A) (A) (A) (A) (A) (A) (A) (A) (A) (A) (A) (A)
                 (A) (A) (A) (A) (A) (A) (A) (A) (A) (A) (A) (A)
                 (A) (A) (A) (A) (A) (A) (A) (A) (A) (A) (A) (A)
                 (A) (A) (A) (A) (A) (A) (A) (A) (A) (A) (A) (A)
                 (A) (A) (A) (A) (A) (A) (A) (A) (A) (A) (A) (A)
                 (A) (A) (A) (A) (A) (A) (A) (A) (A) (A) (A) (A)
                 (A) (A) (A) (A) (A) (A) (A) (A) (A) (A) (A) (A)
                 (A) (A) (A) (A) (A) (A) (A) (A) (A) (A) (A) (A)
                 (A) (A) (A) (A) (A) (A) (A) (A) (A) (A) (A) (A)
                 (A) (A) (A) (A) (A) (A) (A) (A) (A) (A) (A) (A)
                 (A) (A) (A) (A) (A) (A) (A) (A) (A) (A) (A) (A)
                 (A) (A) (A) (A) (A) (A) (A) (A) (A) (A) (A) (A)
                 (A) (A) (A) (A) (A) (A) (A) (A) (A) (A) (A) (A)
                 (A) (A) (A) (A) (A) (A) (A) (A) (A) (A) (A) (A)
                 (A) (A) (A) (A) (A) (A) (A) (A) (A) (A) (A) (A)
                 (A) (A) (A) (A) (A) (A) (A) (A) (A) (A) (A) (A)
                 (A) (A) (A) (A) (A) (A) (A) (A) (A) (A) (A) (A)
                 (A) (A) (A) (A) (A) (A) (A) (A) (A) (A) (A) (A)
                 (A) (A) (A) (A) (A) (A) (A) (A) (A) (A) (A) (A)
                 (A) (A) (A) (A) (A) (A) (A) (A) (A) (A) (A) (A)
                 (A) (A) (A) (A) (A) (A) (A) (A) (A) (A) (A) (A)
                 (A) (A) (A) (A) (A) (A) (A) (A) (A) (A) (A) (A)
                 (A) (A) (A) (A) (A) (A) (A) (A) (A) (A) (A) (A)
                 (A) (A) (A) (A) (A) (A) (A) (A) (A) (A) (A) (A)
                 (A) (A) (A) (A) (A) (A) (A) (A) (A) (A) (A) (A)
                 (A) (A) (A) (A) (A) (A) (A) (A) (A) (A) (A) (A)
                 (A) (A) (A) (A) (A) (A) (A) (A) (A) (A) (A) (A)
                 (A) (A) (A) (A) (A) (A) (A) (A) (A) (A) (A) (A)
                 (A) (A) (A) (A) (A) (A) (A) (A) (A) (A) (A) (A)
                 (A) (A) (A) (A) (A) (A) (A) (A) (A) (A) (A) (A)
                 (A) (A) (A) (A) (A) (A) (A) (A) (A) (A) (A) (A)
                 (A) (A) (A) (A) (A) (A) (A) (A) (A) (A) (A) (A)
                 (A) (A) (A) (A) (A) (A) (A) (A) (A) (A) (A) (A)
                 (A) (A) (A) (A) (A) (A) (A) (A) (A) (A) (A) (A)
                 (A) (A) (A) (A) (A) (A) (A) (A) (A) (A) (A)
 The electronic state is 1-A.
 Alpha  occ. eigenvalues -- -482.99905-235.69637 -89.03962 -89.03755 -62.57891
 Alpha  occ. eigenvalues --  -56.38524 -56.38418 -56.38415 -27.46546 -23.52321
 Alpha  occ. eigenvalues --  -23.52217 -23.52044 -19.33608 -19.33583 -19.33158
 Alpha  occ. eigenvalues --  -14.50039 -14.49990 -14.45509 -10.41252 -10.41242
 Alpha  occ. eigenvalues --  -10.40820 -10.36526 -10.36514 -10.35777 -10.35760
 Alpha  occ. eigenvalues --  -10.35656 -10.35646 -10.35525 -10.35519 -10.35215
 Alpha  occ. eigenvalues --  -10.35048 -10.34248 -10.34225 -10.34222 -10.34210
 Alpha  occ. eigenvalues --  -10.34160 -10.34155 -10.32885 -10.32875 -10.32865
 Alpha  occ. eigenvalues --  -10.32742 -10.32730 -10.32652 -10.32497 -10.32492
 Alpha  occ. eigenvalues --  -10.32320 -10.32317 -10.32152 -10.31923 -10.31795
 Alpha  occ. eigenvalues --   -8.74636  -8.09047  -8.08900  -6.56560  -6.56192
 Alpha  occ. eigenvalues --   -6.56175  -6.04510  -6.04360  -6.04116  -6.03965
 Alpha  occ. eigenvalues --   -6.03483  -6.03336  -3.25759  -2.67023  -2.66927
 Alpha  occ. eigenvalues --   -2.66914  -2.66622  -2.66620  -2.11222  -2.11002
 Alpha  occ. eigenvalues --   -2.10698  -1.22545  -1.22496  -1.21961  -1.07872
 Alpha  occ. eigenvalues --   -1.07484  -1.01181  -1.01099  -0.98702  -0.97282
 Alpha  occ. eigenvalues --   -0.94492  -0.93279  -0.92151  -0.91037  -0.89524
 Alpha  occ. eigenvalues --   -0.88123  -0.87557  -0.86442  -0.85887  -0.85269
 Alpha  occ. eigenvalues --   -0.82792  -0.79709  -0.78798  -0.75733  -0.75641
 Alpha  occ. eigenvalues --   -0.74891  -0.74614  -0.74122  -0.72500  -0.71472
 Alpha  occ. eigenvalues --   -0.70266  -0.69796  -0.67317  -0.66999  -0.65200
 Alpha  occ. eigenvalues --   -0.64622  -0.64493  -0.64278  -0.63931  -0.62296
 Alpha  occ. eigenvalues --   -0.61154  -0.60583  -0.59935  -0.58645  -0.58248
 Alpha  occ. eigenvalues --   -0.57795  -0.57466  -0.56977  -0.56896  -0.56759
 Alpha  occ. eigenvalues --   -0.55958  -0.55836  -0.55527  -0.54698  -0.54660
 Alpha  occ. eigenvalues --   -0.54623  -0.53624  -0.53594  -0.53437  -0.53171
 Alpha  occ. eigenvalues --   -0.53005  -0.52548  -0.52335  -0.52055  -0.51920
 Alpha  occ. eigenvalues --   -0.51579  -0.51147  -0.50621  -0.50396  -0.49784
 Alpha  occ. eigenvalues --   -0.49567  -0.48995  -0.48265  -0.48249  -0.47209
 Alpha  occ. eigenvalues --   -0.46979  -0.45373  -0.45182  -0.45039  -0.44683
 Alpha  occ. eigenvalues --   -0.44350  -0.44306  -0.43771  -0.42602  -0.41802
 Alpha  occ. eigenvalues --   -0.40883  -0.40148  -0.39678  -0.39435  -0.38631
 Alpha  occ. eigenvalues --   -0.36768  -0.36595  -0.36148  -0.35503  -0.35140
 Alpha  occ. eigenvalues --   -0.34622  -0.34531  -0.34335  -0.34087  -0.31470
 Alpha  occ. eigenvalues --   -0.31414  -0.30762  -0.30370  -0.30202
 Alpha virt. eigenvalues --    0.00462   0.00733   0.01142   0.01343   0.02088
 Alpha virt. eigenvalues --    0.02972   0.03267   0.03491   0.03975   0.04377
 Alpha virt. eigenvalues --    0.04754   0.04920   0.05591   0.07756   0.08005
 Alpha virt. eigenvalues --    0.09228   0.09271   0.09309   0.10381   0.10604
 Alpha virt. eigenvalues --    0.11019   0.11269   0.12751   0.12991   0.13654
 Alpha virt. eigenvalues --    0.14093   0.14956   0.15091   0.15622   0.16056
 Alpha virt. eigenvalues --    0.16207   0.16277   0.16513   0.17958   0.18250
 Alpha virt. eigenvalues --    0.18598   0.19095   0.19352   0.19795   0.20124
 Alpha virt. eigenvalues --    0.20672   0.21058   0.21309   0.21528   0.21870
 Alpha virt. eigenvalues --    0.22082   0.23015   0.23361   0.23470   0.23728
 Alpha virt. eigenvalues --    0.24364   0.25305   0.25887   0.26388   0.27620
 Alpha virt. eigenvalues --    0.27818   0.28766   0.29082   0.29972   0.30509
 Alpha virt. eigenvalues --    0.31395   0.31688   0.32289   0.32682   0.33188
 Alpha virt. eigenvalues --    0.33315   0.33494   0.33720   0.34490   0.34938
 Alpha virt. eigenvalues --    0.35500   0.35706   0.35778   0.35986   0.36378
 Alpha virt. eigenvalues --    0.36835   0.37034   0.37198   0.37613   0.38126
 Alpha virt. eigenvalues --    0.38437   0.38581   0.39381   0.39994   0.40279
 Alpha virt. eigenvalues --    0.40534   0.40664   0.41944   0.42468   0.42537
 Alpha virt. eigenvalues --    0.42643   0.43413   0.43668   0.43989   0.45425
 Alpha virt. eigenvalues --    0.45551   0.45954   0.46877   0.47250   0.47402
 Alpha virt. eigenvalues --    0.47901   0.48587   0.48834   0.48965   0.49569
 Alpha virt. eigenvalues --    0.49728   0.50324   0.50423   0.50919   0.51312
 Alpha virt. eigenvalues --    0.51960   0.52179   0.52829   0.53295   0.53498
 Alpha virt. eigenvalues --    0.53727   0.54105   0.54616   0.54885   0.55065
 Alpha virt. eigenvalues --    0.55223   0.55771   0.55881   0.56531   0.57040
 Alpha virt. eigenvalues --    0.57548   0.57831   0.57983   0.58269   0.58416
 Alpha virt. eigenvalues --    0.58502   0.58710   0.59820   0.60120   0.60427
 Alpha virt. eigenvalues --    0.60551   0.61013   0.61171   0.62492   0.63602
 Alpha virt. eigenvalues --    0.63702   0.63932   0.64248   0.64683   0.64841
 Alpha virt. eigenvalues --    0.65508   0.65664   0.65833   0.66318   0.66674
 Alpha virt. eigenvalues --    0.66774   0.66956   0.67930   0.68137   0.68291
 Alpha virt. eigenvalues --    0.69293   0.69892   0.70540   0.70752   0.71437
 Alpha virt. eigenvalues --    0.71497   0.71766   0.71912   0.72222   0.72236
 Alpha virt. eigenvalues --    0.72327   0.72778   0.73308   0.73472   0.73541
 Alpha virt. eigenvalues --    0.73775   0.73982   0.74153   0.74777   0.75116
 Alpha virt. eigenvalues --    0.75511   0.75744   0.75936   0.76128   0.76145
 Alpha virt. eigenvalues --    0.76617   0.77125   0.77496   0.77895   0.78147
 Alpha virt. eigenvalues --    0.78229   0.78524   0.78644   0.79099   0.79741
 Alpha virt. eigenvalues --    0.80220   0.80440   0.80563   0.81097   0.81341
 Alpha virt. eigenvalues --    0.81358   0.81527   0.82065   0.82287   0.82475
 Alpha virt. eigenvalues --    0.83128   0.83344   0.83742   0.84067   0.84707
 Alpha virt. eigenvalues --    0.84947   0.85044   0.85896   0.86010   0.86561
 Alpha virt. eigenvalues --    0.86680   0.87418   0.87741   0.88003   0.88398
 Alpha virt. eigenvalues --    0.88630   0.88819   0.89188   0.89660   0.90136
 Alpha virt. eigenvalues --    0.90560   0.90807   0.91075   0.91556   0.91904
 Alpha virt. eigenvalues --    0.92564   0.93313   0.93499   0.94666   0.94745
 Alpha virt. eigenvalues --    0.95239   0.95642   0.96154   0.97059   0.97308
 Alpha virt. eigenvalues --    0.98147   0.98733   0.99078   0.99458   1.00020
 Alpha virt. eigenvalues --    1.01175   1.02485   1.03382   1.04691   1.04956
 Alpha virt. eigenvalues --    1.05632   1.06526   1.06710   1.08157   1.08402
 Alpha virt. eigenvalues --    1.09063   1.09126   1.09643   1.10302   1.10805
 Alpha virt. eigenvalues --    1.10839   1.12017   1.12766   1.13636   1.14350
 Alpha virt. eigenvalues --    1.14788   1.15610   1.15869   1.16622   1.17935
 Alpha virt. eigenvalues --    1.19279   1.19516   1.20174   1.20689   1.20978
 Alpha virt. eigenvalues --    1.22263   1.22614   1.22939   1.24254   1.25472
 Alpha virt. eigenvalues --    1.25691   1.26702   1.27549   1.27604   1.28369
 Alpha virt. eigenvalues --    1.29067   1.29470   1.29567   1.29861   1.30337
 Alpha virt. eigenvalues --    1.30494   1.30902   1.31399   1.31538   1.32307
 Alpha virt. eigenvalues --    1.32671   1.32913   1.33507   1.33874   1.34766
 Alpha virt. eigenvalues --    1.35120   1.35458   1.35702   1.35896   1.36494
 Alpha virt. eigenvalues --    1.37219   1.37455   1.38391   1.38631   1.38899
 Alpha virt. eigenvalues --    1.40012   1.40228   1.40613   1.41726   1.42666
 Alpha virt. eigenvalues --    1.43445   1.44426   1.44940   1.47669   1.48766
 Alpha virt. eigenvalues --    1.50040   1.50530   1.52995   1.53268   1.54709
 Alpha virt. eigenvalues --    1.57049   1.57295   1.58293   1.59014   1.59555
 Alpha virt. eigenvalues --    1.61267   1.62763   1.64500   1.65733   1.66516
 Alpha virt. eigenvalues --    1.66790   1.67765   1.69629   1.70048   1.70179
 Alpha virt. eigenvalues --    1.71192   1.72663   1.72956   1.73523   1.74246
 Alpha virt. eigenvalues --    1.74599   1.74781   1.74828   1.75242   1.76040
 Alpha virt. eigenvalues --    1.76338   1.76545   1.77623   1.77798   1.78300
 Alpha virt. eigenvalues --    1.78487   1.78552   1.78982   1.79606   1.79833
 Alpha virt. eigenvalues --    1.80026   1.80994   1.81315   1.81893   1.82054
 Alpha virt. eigenvalues --    1.82294   1.82698   1.82828   1.83028   1.83177
 Alpha virt. eigenvalues --    1.83520   1.83792   1.84007   1.84110   1.85374
 Alpha virt. eigenvalues --    1.85747   1.86295   1.87592   1.87918   1.88345
 Alpha virt. eigenvalues --    1.88566   1.88981   1.89164   1.90355   1.90682
 Alpha virt. eigenvalues --    1.90909   1.91337   1.91556   1.92432   1.92941
 Alpha virt. eigenvalues --    1.93546   1.94113   1.96226   1.96978   1.97325
 Alpha virt. eigenvalues --    1.98113   1.98773   1.98950   1.99136   2.00480
 Alpha virt. eigenvalues --    2.00740   2.01098   2.01435   2.02033   2.02148
 Alpha virt. eigenvalues --    2.03137   2.03409   2.03951   2.03975   2.04317
 Alpha virt. eigenvalues --    2.04726   2.05840   2.06350   2.06455   2.06896
 Alpha virt. eigenvalues --    2.07818   2.08218   2.08694   2.09326   2.09970
 Alpha virt. eigenvalues --    2.10807   2.11640   2.11951   2.12228   2.13787
 Alpha virt. eigenvalues --    2.15499   2.16763   2.18386   2.18703   2.19238
 Alpha virt. eigenvalues --    2.19410   2.20780   2.21373   2.21566   2.22396
 Alpha virt. eigenvalues --    2.22528   2.23034   2.23891   2.24676   2.26349
 Alpha virt. eigenvalues --    2.26965   2.27108   2.29478   2.30023   2.30916
 Alpha virt. eigenvalues --    2.31133   2.31365   2.31457   2.31879   2.32154
 Alpha virt. eigenvalues --    2.32431   2.34349   2.34883   2.35532   2.35617
 Alpha virt. eigenvalues --    2.36649   2.37914   2.38016   2.38203   2.38775
 Alpha virt. eigenvalues --    2.38787   2.39000   2.39559   2.39724   2.40685
 Alpha virt. eigenvalues --    2.40860   2.42247   2.42405   2.43490   2.46325
 Alpha virt. eigenvalues --    2.46977   2.47881   2.48731   2.50454   2.50636
 Alpha virt. eigenvalues --    2.53177   2.53280   2.55522   2.56361   2.59109
 Alpha virt. eigenvalues --    2.59395   2.59724   2.60122   2.61977   2.66870
 Alpha virt. eigenvalues --    2.67207   2.67649   2.68308   2.68334   2.68425
 Alpha virt. eigenvalues --    2.70007   2.70350   2.70483   2.70598   2.70814
 Alpha virt. eigenvalues --    2.70975   2.71453   2.71502   2.71655   2.71892
 Alpha virt. eigenvalues --    2.72865   2.75986   2.76697   2.76869   2.78186
 Alpha virt. eigenvalues --    2.79776   2.80059   2.80406   2.80634   2.81736
 Alpha virt. eigenvalues --    2.82985   2.83648   2.83869   2.86315   2.86439
 Alpha virt. eigenvalues --    2.87134   2.87438   2.90323   2.91850   2.93193
 Alpha virt. eigenvalues --    2.93942   2.94044   2.96056   2.98580   2.99382
 Alpha virt. eigenvalues --    2.99830   3.02215   3.03568   3.04015   3.04723
 Alpha virt. eigenvalues --    3.06024   3.07438   3.08349   3.08547   3.10323
 Alpha virt. eigenvalues --    3.11044   3.15079   3.15801   3.16240   3.19993
 Alpha virt. eigenvalues --    3.20371   3.21545   3.22442   3.22753   3.23274
 Alpha virt. eigenvalues --    3.24726   3.25052   3.30823   3.30994   3.33896
 Alpha virt. eigenvalues --    3.39089   3.39232   3.40568   3.45339   3.47325
 Alpha virt. eigenvalues --    3.48349   3.53348   3.53985   3.56766   3.57509
 Alpha virt. eigenvalues --    3.58610   3.62122   3.62584   3.63629   3.64949
 Alpha virt. eigenvalues --    3.65567   3.69101   3.70209   3.70506   3.75456
 Alpha virt. eigenvalues --    3.76519   3.77624   3.80439   3.81015   3.82706
 Alpha virt. eigenvalues --    3.93621   4.00002   4.03156   4.06228   4.11419
          Condensed to atoms (all electrons):
 Mulliken charges:
               1
     1  Mn  -0.779423
     2  C    0.362619
     3  O   -0.057118
     4  C    0.362661
     5  O   -0.058358
     6  C    0.309412
     7  N   -0.224788
     8  C   -0.038135
     9  C    0.072396
    10  C    0.161584
    11  H    0.060011
    12  H    0.054083
    13  N   -0.024240
    14  C   -0.054964
    15  C   -0.127066
    16  C    0.018615
    17  C   -0.029740
    18  C    0.017325
    19  H    0.039124
    20  H    0.046418
    21  N   -0.224401
    22  C   -0.038494
    23  C    0.069299
    24  H    0.059814
    25  C    0.110718
    26  H    0.109679
    27  C    0.109597
    28  H    0.109357
    29  H    0.056245
    30  O   -0.077847
    31  S    0.101022
    32  S    0.087795
    33  C   -0.105657
    34  C   -0.016393
    35  C   -0.010217
    36  C   -0.019842
    37  C   -0.006143
    38  C   -0.083690
    39  C   -0.044480
    40  H    0.039065
    41  H    0.051535
    42  H    0.041760
    43  C   -0.049138
    44  C   -0.082857
    45  C   -0.005773
    46  C   -0.019519
    47  C   -0.012105
    48  C   -0.010723
    49  H    0.041730
    50  H    0.051594
    51  H    0.039171
    52  C   -0.102262
    53  H    0.054059
    54  C    0.164677
    55  H    0.043736
    56  H    0.050225
    57  C   -0.007760
    58  C   -0.026541
    59  H    0.049795
    60  H    0.050882
    61  Br  -0.658330
 Sum of Mulliken charges =  -0.00000
 Mulliken charges with hydrogens summed into heavy atoms:
               1
     1  Mn  -0.779423
     2  C    0.362619
     3  O   -0.057118
     4  C    0.362661
     5  O   -0.058358
     6  C    0.309412
     7  N   -0.224788
     8  C    0.021876
     9  C    0.126479
    10  C    0.211809
    13  N   -0.024240
    14  C   -0.054964
    15  C   -0.127066
    16  C    0.057738
    17  C    0.026504
    18  C    0.063743
    21  N   -0.224401
    22  C    0.021320
    23  C    0.123358
    25  C    0.220397
    27  C    0.218954
    30  O   -0.077847
    31  S    0.101022
    32  S    0.087795
    33  C   -0.105657
    34  C   -0.016393
    35  C    0.028849
    36  C    0.031694
    37  C    0.035617
    38  C   -0.083690
    39  C   -0.044480
    43  C   -0.049138
    44  C   -0.082857
    45  C    0.035957
    46  C    0.032075
    47  C    0.027066
    48  C   -0.010723
    52  C   -0.102262
    54  C    0.208413
    57  C    0.043122
    58  C    0.023254
    61  Br  -0.658330
 Electronic spatial extent (au):  <R**2>=          29101.7752
 Charge=             -0.0000 electrons
 Dipole moment (field-independent basis, Debye):
    X=             -8.0005    Y=              0.9386    Z=              0.9333  Tot=              8.1092
 Quadrupole moment (field-independent basis, Debye-Ang):
   XX=           -234.6934   YY=           -234.7361   ZZ=           -281.4001
   XY=              7.1937   XZ=              4.7874   YZ=              0.8656
 Traceless Quadrupole moment (field-independent basis, Debye-Ang):
   XX=             15.5831   YY=             15.5404   ZZ=            -31.1236
   XY=              7.1937   XZ=              4.7874   YZ=              0.8656
 Octapole moment (field-independent basis, Debye-Ang**2):
  XXX=            502.7743  YYY=            -15.1954  ZZZ=            103.1023  XYY=           -125.6698
  XXY=             41.0017  XXZ=           -138.3119  XZZ=            -11.6919  YZZ=              8.3204
  YYZ=             45.9348  XYZ=            -11.6326
 Hexadecapole moment (field-independent basis, Debye-Ang**3):
 XXXX=         -24813.1932 YYYY=          -5522.1345 ZZZZ=          -3907.0218 XXXY=            439.6965
 XXXZ=            258.3042 YYYX=            -72.8793 YYYZ=            -61.5329 ZZZX=            143.9852
 ZZZY=             21.1878 XXYY=          -5670.9467 XXZZ=          -5312.1235 YYZZ=          -1388.2262
 XXYZ=            -69.8702 YYXZ=            252.6112 ZZXY=             63.2269
 N-N= 6.537697578149D+03 E-N=-2.761806514826D+04  KE= 6.117242272937D+03
 PrsmSu:  requested number of processors reduced to:  11 ShMem   1 Linda.
 D1PCM: PCM CHGder 1st derivatives, ID1Alg=3 FixD1E=F DoIter=F DoCFld=F I1PDM=0.
 CoulSu:  requested number of processors reduced to:  10 ShMem   1 Linda.
 CoulSu:  requested number of processors reduced to:  10 ShMem   1 Linda.
 Calling FoFJK, ICntrl=      2127 FMM=T ISym2X=0 I1Cent= 0 IOpClX= 0 NMat=1 NMatS=1 NMatT=0.
 ***** Axes restored to original set *****
 -------------------------------------------------------------------
 Center     Atomic                   Forces (Hartrees/Bohr)
 Number     Number              X              Y              Z
 -------------------------------------------------------------------
      1       25          -0.002081920   -0.002033299    0.001145856
      2        6           0.001043651   -0.000641567    0.000849576
      3        8          -0.000084758    0.000566564   -0.000880475
      4        6          -0.000344204   -0.000120831   -0.001238721
      5        8           0.000646114    0.000803792    0.001036446
      6        6           0.001809205    0.000517871   -0.000706226
      7        7           0.001627609    0.000319583    0.000536283
      8        6          -0.000816578    0.000110403   -0.000083936
      9        6          -0.000468336   -0.000305256   -0.000218032
     10        6           0.000016106   -0.000461281    0.000042680
     11        1           0.000712338   -0.000223443    0.000018316
     12        1           0.000530880    0.000486855    0.000157997
     13        7           0.000976473   -0.000743421   -0.000294819
     14        6          -0.001598562    0.001840646    0.000470739
     15        6           0.000808885   -0.001787145   -0.000398925
     16        6          -0.000403881   -0.000841334    0.000420728
     17        6          -0.000670362    0.000169441    0.000452208
     18        6           0.000431124    0.000157818   -0.000347804
     19        1           0.000269173    0.000649199   -0.000261617
     20        1          -0.000617820    0.000165932    0.000422869
     21        7           0.000506900    0.001322947   -0.001738865
     22        6          -0.000278689   -0.000007784    0.000931729
     23        6          -0.000142308   -0.000277335    0.000360628
     24        1           0.000336800   -0.000207931   -0.000681552
     25        6          -0.000382888    0.000827769    0.000286241
     26        1           0.000311836   -0.000749219   -0.000301790
     27        6          -0.000441912    0.000973272    0.000112360
     28        1           0.000386486   -0.000778066   -0.000064379
     29        1           0.000671128   -0.000020220   -0.000473896
     30        8          -0.001085799   -0.000610053    0.000397016
     31       16          -0.000738170    0.000725281    0.000496254
     32       16          -0.000134451   -0.001075452   -0.000094060
     33        6           0.000640959   -0.001172644   -0.000268406
     34        6          -0.000248559    0.000798018    0.000271681
     35        6          -0.000359997    0.000638525   -0.000362371
     36        6           0.000104827   -0.000179646   -0.000915425
     37        6           0.000039348   -0.000322035   -0.000432862
     38        6           0.000016814    0.000121619   -0.000218648
     39        6          -0.000186027    0.000041006   -0.000707136
     40        1           0.000183230   -0.000457265    0.000399164
     41        1          -0.000096679    0.000183168    0.000719727
     42        1          -0.000243550    0.000629351    0.000436768
     43        6           0.000473448   -0.000018772    0.000341295
     44        6           0.000353932    0.000110846    0.000251883
     45        6           0.000399372   -0.000363731    0.000005859
     46        6           0.000720453   -0.000226768    0.000365498
     47        6           0.000175687    0.000493455    0.000585487
     48        6          -0.000445192    0.000763228    0.000140093
     49        1          -0.000294575    0.000636976    0.000266571
     50        1          -0.000623704    0.000421943   -0.000244986
     51        1          -0.000324165   -0.000274321   -0.000444727
     52        6           0.000342645   -0.001310610   -0.000581956
     53        1           0.000200195    0.000427653   -0.000550247
     54        6          -0.000146632   -0.000325577   -0.000167639
     55        1          -0.000452747    0.000660210    0.000309998
     56        1          -0.000500734    0.000327778    0.000321313
     57        6          -0.000410621    0.000663982    0.000160665
     58        6           0.000397992    0.000732883   -0.000403995
     59        1          -0.000273085   -0.000581931    0.000309013
     60        1           0.000372062   -0.000582774   -0.000100706
     61       35          -0.000608770   -0.000588304    0.000161260
 -------------------------------------------------------------------
 Cartesian Forces:  Max     0.002081920 RMS     0.000640664

 GradGradGradGradGradGradGradGradGradGradGradGradGradGradGradGradGradGrad
 Berny optimization.
 FormGI is forming the generalized inverse of G from B-inverse, IUseBI=4.
 Internal  Forces:  Max     0.011743978 RMS     0.001417253
 Search for a local minimum.
 Step number   1 out of a maximum of  366
 All quantities printed in internal units (Hartrees-Bohrs-Radians)
 Mixed Optimization -- RFO/linear search
 Second derivative matrix not updated -- first step.
 ITU=  0
     Eigenvalues ---    0.00230   0.00230   0.00862   0.00870   0.00903
     Eigenvalues ---    0.01134   0.01227   0.01382   0.01551   0.01551
     Eigenvalues ---    0.01622   0.01654   0.01667   0.01674   0.01676
     Eigenvalues ---    0.01745   0.01763   0.01781   0.01802   0.01901
     Eigenvalues ---    0.01953   0.02058   0.02081   0.02084   0.02086
     Eigenvalues ---    0.02127   0.02142   0.02146   0.02147   0.02156
     Eigenvalues ---    0.02160   0.02162   0.02164   0.02167   0.02171
     Eigenvalues ---    0.02172   0.02174   0.02176   0.02178   0.02181
     Eigenvalues ---    0.02182   0.02186   0.02187   0.02215   0.02216
     Eigenvalues ---    0.02231   0.02254   0.02256   0.02270   0.02309
     Eigenvalues ---    0.02328   0.02352   0.02425   0.02455   0.02462
     Eigenvalues ---    0.03226   0.03383   0.04070   0.05001   0.05001
     Eigenvalues ---    0.05274   0.06027   0.06677   0.08210   0.09282
     Eigenvalues ---    0.09694   0.10281   0.10676   0.11512   0.15149
     Eigenvalues ---    0.15995   0.15995   0.15996   0.15997   0.15997
     Eigenvalues ---    0.15998   0.15999   0.15999   0.15999   0.15999
     Eigenvalues ---    0.15999   0.15999   0.15999   0.16000   0.16000
     Eigenvalues ---    0.16000   0.16000   0.16000   0.16000   0.18503
     Eigenvalues ---    0.20542   0.22000   0.22000   0.22000   0.22000
     Eigenvalues ---    0.22069   0.22088   0.22089   0.22370   0.22778
     Eigenvalues ---    0.23188   0.23429   0.23440   0.23446   0.23485
     Eigenvalues ---    0.23587   0.23611   0.24694   0.24879   0.24894
     Eigenvalues ---    0.24905   0.24990   0.24990   0.24997   0.24998
     Eigenvalues ---    0.24998   0.24999   0.27138   0.27305   0.27546
     Eigenvalues ---    0.28100   0.33151   0.33218   0.34460   0.34461
     Eigenvalues ---    0.34469   0.34473   0.34483   0.34486   0.34486
     Eigenvalues ---    0.34489   0.34510   0.34526   0.34529   0.34531
     Eigenvalues ---    0.34560   0.34568   0.34582   0.34656   0.34664
     Eigenvalues ---    0.34721   0.34722   0.39142   0.39497   0.41458
     Eigenvalues ---    0.41666   0.41728   0.41861   0.42223   0.42766
     Eigenvalues ---    0.42806   0.44111   0.44443   0.44456   0.45139
     Eigenvalues ---    0.45589   0.45833   0.45865   0.46031   0.46057
     Eigenvalues ---    0.46123   0.46539   0.46617   0.46687   0.46732
     Eigenvalues ---    0.46742   0.47078   0.47182   0.47184   0.54767
     Eigenvalues ---    0.54970   0.56635   0.56653   1.26354   1.29491
     Eigenvalues ---    1.34687   1.38585
 RFO step:  Lambda=-9.29408254D-03 EMin= 2.30000000D-03
 Linear search not attempted -- first point.
 Iteration  1 RMS(Cart)=  0.37988593 RMS(Int)=  0.01653595
 Iteration  2 RMS(Cart)=  0.36890858 RMS(Int)=  0.00773689
 Iteration  3 RMS(Cart)=  0.02535509 RMS(Int)=  0.00025927
 Iteration  4 RMS(Cart)=  0.00013151 RMS(Int)=  0.00025759
 Iteration  5 RMS(Cart)=  0.00000003 RMS(Int)=  0.00025759
 Iteration  1 RMS(Cart)=  0.37890202 RMS(Int)=  0.01389158
 Iteration  2 RMS(Cart)=  0.29570929 RMS(Int)=  0.00501764
 Iteration  3 RMS(Cart)=  0.01637925 RMS(Int)=  0.00020908
 Iteration  4 RMS(Cart)=  0.00004574 RMS(Int)=  0.00020873
 Iteration  5 RMS(Cart)=  0.00000001 RMS(Int)=  0.00020873
 ITry= 2 IFail=0 DXMaxC= 3.14D+00 DCOld= 3.52D+00 DXMaxT= 3.00D-01 DXLimC= 3.00D+00 Rises=F
 Iteration  1 RMS(Cart)=  0.37298695 RMS(Int)=  0.01147387
 Iteration  2 RMS(Cart)=  0.22655879 RMS(Int)=  0.00298822
 Iteration  3 RMS(Cart)=  0.00972223 RMS(Int)=  0.00016503
 Iteration  4 RMS(Cart)=  0.00001382 RMS(Int)=  0.00016498
 Iteration  5 RMS(Cart)=  0.00000000 RMS(Int)=  0.00016498
 ITry= 3 IFail=0 DXMaxC= 2.77D+00 DCOld= 3.14D+00 DXMaxT= 3.00D-01 DXLimC= 3.00D+00 Rises=F
 Variable       Old X    -DE/DX   Delta X   Delta X   Delta X     New X
                                 (Linear)    (Quad)   (Total)
    R1        3.43801   0.00044   0.00000   0.00171   0.00138   3.43939
    R2        3.43354   0.00067   0.00000   0.00392   0.00314   3.43668
    R3        3.38743   0.00074   0.00000   0.00291   0.00232   3.38976
    R4        4.08774  -0.00150   0.00000  -0.01418  -0.01134   4.07640
    R5        4.98856  -0.00004   0.00000  -0.00322  -0.00257   4.98598
    R6        2.16192  -0.00019   0.00000  -0.00025  -0.00018   2.16174
    R7        5.50090   0.00040   0.00000   0.00739   0.00590   5.50681
    R8        5.68769  -0.00051   0.00000  -0.01747  -0.01397   5.67372
    R9        2.16257  -0.00040   0.00000  -0.00029  -0.00023   2.16234
   R10        5.56693  -0.00048   0.00000  -0.00368  -0.00294   5.56399
   R11        2.17286  -0.00083   0.00000  -0.00062  -0.00049   2.17237
   R12        2.52656  -0.00199   0.00000  -0.00359  -0.00281   2.52375
   R13        2.53649   0.00035   0.00000   0.00060   0.00038   2.53687
   R14        2.63029   0.00046   0.00000   0.00122   0.00090   2.63120
   R15        2.06224  -0.00075   0.00000  -0.00210  -0.00168   2.06057
   R16        2.62477   0.00079   0.00000   0.00187   0.00133   2.62610
   R17        2.06558  -0.00073   0.00000  -0.00205  -0.00164   2.06394
   R18        2.63464  -0.00018   0.00000  -0.00039  -0.00021   2.63443
   R19        2.63602  -0.00133   0.00000  -0.00306  -0.00228   2.63374
   R20        2.06131  -0.00056   0.00000  -0.00157  -0.00125   2.06006
   R21        2.18721   0.00116   0.00000   0.00089   0.00071   2.18792
   R22        2.72241  -0.00127   0.00000  -0.00314  -0.00251   2.71990
   R23        2.65040   0.00035   0.00000   0.00080   0.00064   2.65104
   R24        2.64960   0.00048   0.00000   0.00108   0.00086   2.65046
   R25        2.62907   0.00026   0.00000   0.00056   0.00045   2.62952
   R26        2.06545  -0.00091   0.00000  -0.00257  -0.00205   2.06339
   R27        2.06477  -0.00082   0.00000  -0.00231  -0.00185   2.06293
   R28        2.63704  -0.00005   0.00000  -0.00014  -0.00011   2.63692
   R29        2.06396  -0.00075   0.00000  -0.00210  -0.00168   2.06228
   R30        2.62964   0.00001   0.00000   0.00001   0.00001   2.62964
   R31        5.73623   0.00049   0.00000   0.01243   0.00994   5.74617
   R32        2.53634   0.00048   0.00000   0.00086   0.00069   2.53703
   R33        2.52665   0.00044   0.00000   0.00077   0.00062   2.52726
   R34        2.63084   0.00035   0.00000   0.00070   0.00056   2.63141
   R35        2.06238  -0.00079   0.00000  -0.00222  -0.00177   2.06060
   R36        2.62438   0.00088   0.00000   0.00181   0.00145   2.62583
   R37        2.63507  -0.00038   0.00000  -0.00083  -0.00067   2.63441
[...]
   D26       -2.72066  -0.00000  -0.00214   0.00000  -0.00215  -2.72281
   D27       -2.55960  -0.00001  -0.00268   0.00000  -0.00268  -2.56228
   D28       -0.60281  -0.00001   0.04069   0.00000   0.04073  -0.56208
   D29        2.26513  -0.00001  -0.00247   0.00000  -0.00248   2.26266
   D30        3.05981   0.00000  -0.00074   0.00000  -0.00074   3.05908
   D31       -0.08435   0.00000  -0.00059   0.00000  -0.00059  -0.08494
   D32       -0.04851   0.00000  -0.00028   0.00000  -0.00028  -0.04880
   D33        3.09051   0.00000  -0.00014   0.00000  -0.00014   3.09037
   D34       -3.09903  -0.00000   0.00057   0.00000   0.00057  -3.09846
   D35        0.03007   0.00000   0.00057   0.00000   0.00057   0.03063
   D36        0.00848  -0.00000   0.00010   0.00000   0.00010   0.00858
   D37        3.13758   0.00000   0.00010   0.00000   0.00010   3.13767
   D38       -0.01227  -0.00000  -0.00010   0.00000  -0.00010  -0.01237
   D39        3.13989   0.00000  -0.00011   0.00000  -0.00011   3.13979
   D40        3.11213  -0.00000  -0.00017   0.00000  -0.00017   3.11197
   D41       -0.01889   0.00000  -0.00017   0.00000  -0.00017  -0.01906
   D42        0.02449   0.00000   0.00013   0.00000   0.00013   0.02462
   D43       -3.10400  -0.00000   0.00013   0.00000   0.00013  -3.10387
   D44       -3.13398   0.00000   0.00006   0.00000   0.00006  -3.13391
   D45        0.02072  -0.00000   0.00006   0.00000   0.00006   0.02078
   D46       -0.01708  -0.00000   0.00001   0.00000   0.00001  -0.01708
   D47        3.11739  -0.00000  -0.00055   0.00000  -0.00055   3.11684
   D48        3.13502  -0.00000   0.00000   0.00000   0.00000   3.13502
   D49       -0.01369  -0.00000  -0.00056   0.00000  -0.00056  -0.01425
   D50        0.05320   0.00000   0.00023   0.00000   0.00023   0.05343
   D51       -3.08158   0.00000   0.00077   0.00000   0.00077  -3.08081
   D52       -3.08580  -0.00000   0.00009   0.00000   0.00009  -3.08571
   D53        0.06261  -0.00000   0.00063   0.00000   0.00063   0.06323
   D54       -3.14086  -0.00001   0.00101   0.00000   0.00101  -3.13986
   D55        0.00012  -0.00001  -0.00004   0.00000  -0.00004   0.00008
   D56        0.00019  -0.00000   0.00031   0.00000   0.00031   0.00050
   D57        3.14118   0.00000  -0.00073   0.00000  -0.00073   3.14045
   D58       -0.00054   0.00001  -0.00060   0.00000  -0.00060  -0.00114
   D59        3.14098   0.00001  -0.00069   0.00000  -0.00069   3.14029
   D60        3.14159  -0.00000   0.00009   0.00000   0.00009  -3.14150
   D61       -0.00008   0.00000  -0.00000   0.00000  -0.00000  -0.00008
   D62        3.14130   0.00000  -0.00054   0.00000  -0.00054   3.14076
   D63       -0.00014   0.00000  -0.00039   0.00000  -0.00039  -0.00053
   D64        0.00031  -0.00000   0.00050   0.00000   0.00050   0.00080
   D65       -3.14114  -0.00000   0.00064   0.00000   0.00064  -3.14049
   D66        0.67699  -0.00001  -0.04674   0.00000  -0.04662   0.63037
   D67        0.93435  -0.00002  -0.02273   0.00000  -0.02272   0.91164
   D68       -0.71584   0.00000  -0.03870   0.00000  -0.03884  -0.75468
   D69       -3.09038  -0.00001   0.11444   0.00000   0.11444  -2.97594
   D70       -2.46521  -0.00001  -0.04778   0.00000  -0.04767  -2.51288
   D71       -2.20785  -0.00001  -0.02378   0.00000  -0.02377  -2.23161
   D72        2.42514   0.00001  -0.03975   0.00000  -0.03989   2.38525
   D73        0.05061  -0.00000   0.11339   0.00000   0.11340   0.16400
   D74       -0.00001  -0.00000   0.00016   0.00000   0.00016   0.00014
   D75        3.14157  -0.00000   0.00006   0.00000   0.00006  -3.14155
   D76       -3.14146  -0.00000   0.00030   0.00000   0.00030  -3.14115
   D77        0.00013  -0.00000   0.00021   0.00000   0.00021   0.00034
   D78       -0.00008   0.00000  -0.00023   0.00000  -0.00023  -0.00032
   D79       -3.14151  -0.00000  -0.00005   0.00000  -0.00005  -3.14156
   D80        3.14143   0.00000  -0.00033   0.00000  -0.00033   3.14111
   D81        0.00001   0.00000  -0.00014   0.00000  -0.00014  -0.00013
   D82       -0.54768   0.00001   0.00091   0.00000   0.00092  -0.54676
   D83       -0.85161   0.00001   0.00023   0.00000   0.00024  -0.85137
   D84        0.54783  -0.00001   0.00161   0.00000   0.00160   0.54943
   D85        3.08249   0.00000  -0.13000   0.00000  -0.13007   2.95243
   D86       -0.00851  -0.00000   0.00000   0.00000   0.00000  -0.00851
   D87       -3.13746  -0.00000   0.00004   0.00000   0.00004  -3.13742
   D88        0.04766  -0.00000  -0.00021   0.00000  -0.00021   0.04745
   D89       -3.09078  -0.00000  -0.00015   0.00000  -0.00015  -3.09092
   D90       -3.14005   0.00000  -0.00003   0.00000  -0.00003  -3.14009
   D91        0.01191   0.00000  -0.00004   0.00000  -0.00004   0.01187
   D92        0.01843   0.00000  -0.00008   0.00000  -0.00008   0.01835
   D93       -3.11279   0.00000  -0.00008   0.00000  -0.00008  -3.11288
   D94       -0.02382   0.00000   0.00014   0.00000   0.00014  -0.02368
   D95        3.10452   0.00000   0.00010   0.00000   0.00010   3.10461
   D96        3.13436  -0.00000   0.00009   0.00000   0.00009   3.13445
   D97       -0.02049   0.00000   0.00005   0.00000   0.00005  -0.02044
   D98       -3.11989   0.00000  -0.00021   0.00000  -0.00021  -3.12010
   D99        0.01674  -0.00000  -0.00011   0.00000  -0.00011   0.01663
   D100       0.01139   0.00000  -0.00021   0.00000  -0.00021   0.01118
   D101      -3.13516  -0.00000  -0.00010   0.00000  -0.00010  -3.13527
   D102      -2.39994   0.00000   0.00012   0.00000   0.00012  -2.39982
   D103       0.80746   0.00000  -0.00024   0.00000  -0.00024   0.80722
   D104      -0.80826   0.00000  -0.00020   0.00000  -0.00020  -0.80846
   D105       2.39968   0.00000  -0.00021   0.00000  -0.00021   2.39947
   D106       2.43864   0.00000  -0.00097   0.00000  -0.00097   2.43767
   D107      -0.74822   0.00000  -0.00101   0.00000  -0.00101  -0.74922
   D108       0.74740   0.00000   0.00054   0.00000   0.00054   0.74794
   D109      -2.43924   0.00000   0.00058   0.00000   0.00058  -2.43866
   D110       1.20120   0.00001   0.00159   0.00000   0.00159   1.20279
   D111      -1.95084   0.00000   0.00189   0.00000   0.00189  -1.94895
   D112      -1.94760   0.00001   0.00102   0.00000   0.00102  -1.94658
   D113       1.18354   0.00000   0.00132   0.00000   0.00132   1.18486
   D114       3.09120  -0.00000   0.00052   0.00000   0.00052   3.09172
   D115      -0.02571  -0.00000   0.00046   0.00000   0.00046  -0.02525
   D116      -0.04014  -0.00000   0.00022   0.00000   0.00022  -0.03991
   D117       3.12614  -0.00000   0.00016   0.00000   0.00016   3.12631
   D118       0.12470   0.00000  -0.00120   0.00000  -0.00120   0.12351
   D119      -3.08287   0.00000  -0.00083   0.00000  -0.00083  -3.08370
   D120      -3.02720   0.00000  -0.00090   0.00000  -0.00090  -3.02810
   D121       0.04841   0.00000  -0.00054   0.00000  -0.00054   0.04787
   D122      -0.00478  -0.00000   0.00018   0.00000   0.00018  -0.00460
   D123      -3.12535   0.00000   0.00004   0.00000   0.00004  -3.12531
   D124       3.11185  -0.00000   0.00024   0.00000   0.00024   3.11210
   D125      -0.00872  -0.00000   0.00011   0.00000   0.00011  -0.00861
   D126       0.04169   0.00000  -0.00027   0.00000  -0.00027   0.04141
   D127      -3.11074   0.00000  -0.00022   0.00000  -0.00022  -3.11096
   D128      -3.12089  -0.00000  -0.00014   0.00000  -0.00014  -3.12102
   D129       0.00987  -0.00000  -0.00008   0.00000  -0.00008   0.00979
   D130       3.06354   0.00000  -0.00008   0.00000  -0.00008   3.06346
   D131      -0.03309   0.00000  -0.00004   0.00000  -0.00004  -0.03314
   D132      -0.06730   0.00000  -0.00014   0.00000  -0.00014  -0.06744
   D133       3.11924   0.00000  -0.00010   0.00000  -0.00010   3.11915
   D134      -0.03232  -0.00000   0.00085   0.00000   0.00085  -0.03147
   D135      -3.10803  -0.00000   0.00048   0.00000   0.00048  -3.10755
   D136       3.06352  -0.00000   0.00082   0.00000   0.00082   3.06434
   D137      -0.01219  -0.00000   0.00045   0.00000   0.00045  -0.01174
   D138       0.03379  -0.00000  -0.00003   0.00000  -0.00003   0.03377
   D139      -3.06226  -0.00000  -0.00007   0.00000  -0.00007  -3.06233
   D140       3.10898  -0.00000  -0.00002   0.00000  -0.00002   3.10896
   D141       0.01293  -0.00000  -0.00006   0.00000  -0.00006   0.01287
   D142       3.02593   0.00000   0.00015   0.00000   0.00015   3.02608
   D143      -0.12599   0.00000   0.00047   0.00000   0.00047  -0.12553
   D144      -0.04915   0.00000   0.00014   0.00000   0.00014  -0.04900
   D145       3.08211   0.00000   0.00046   0.00000   0.00046   3.08258
   D146      -3.06395   0.00000  -0.00010   0.00000  -0.00010  -3.06405
   D147       0.06687   0.00000  -0.00007   0.00000  -0.00007   0.06680
   D148       0.03290  -0.00000  -0.00006   0.00000  -0.00006   0.03284
   D149      -3.11947   0.00000  -0.00003   0.00000  -0.00003  -3.11949
   D150      -0.04201   0.00000   0.00010   0.00000   0.00010  -0.04191
   D151       3.12078   0.00000   0.00006   0.00000   0.00006   3.12084
   D152       3.11044   0.00000   0.00007   0.00000   0.00007   3.11051
   D153      -0.00995  -0.00000   0.00003   0.00000   0.00003  -0.00993
   D154       0.00510  -0.00000  -0.00002   0.00000  -0.00002   0.00508
   D155      -3.11142  -0.00000  -0.00010   0.00000  -0.00010  -3.11151
   D156       3.12545   0.00000   0.00002   0.00000   0.00002   3.12547
   D157       0.00894  -0.00000  -0.00005   0.00000  -0.00005   0.00889
   D158       0.04035  -0.00000  -0.00010   0.00000  -0.00010   0.04026
   D159      -3.09097  -0.00000  -0.00042   0.00000  -0.00042  -3.09139
   D160      -3.12604  -0.00000  -0.00003   0.00000  -0.00003  -3.12607
   D161       0.02582  -0.00000  -0.00035   0.00000  -0.00035   0.02547
   D162       1.95814   0.00000   0.00159   0.00000   0.00159   1.95973
   D163      -1.17843   0.00000   0.00148   0.00000   0.00148  -1.17695
   D164      -1.19392   0.00000   0.00191   0.00000   0.00191  -1.19200
   D165       1.95270   0.00000   0.00181   0.00000   0.00181   1.95451
   D166      -0.05215   0.00000   0.00027   0.00000   0.00027  -0.05188
   D167       3.08626   0.00000   0.00020   0.00000   0.00020   3.08646
   D168       3.08468  -0.00000   0.00037   0.00000   0.00037   3.08505
   D169      -0.06009   0.00000   0.00031   0.00000   0.00031  -0.05978
   D170       0.00013  -0.00000   0.00016   0.00000   0.00016   0.00029
   D171       3.14155   0.00000  -0.00003   0.00000  -0.00003   3.14153
   D172      -3.14146  -0.00000   0.00025   0.00000   0.00025  -3.14120
   D173      -0.00003   0.00000   0.00007   0.00000   0.00007   0.00004
         Item               Value     Threshold  Converged?
 Maximum Force            0.000062     0.000450     YES
 RMS     Force            0.000008     0.000300     YES
 Maximum Displacement     0.208954     0.001800     NO 
 RMS     Displacement     0.027371     0.001200     NO 
 Predicted change in Energy=-1.804587D-07
 GradGradGradGradGradGradGradGradGradGradGradGradGradGradGradGradGradGrad

 Stoichiometry    C32H19BrMnN3O3S2
 Framework group  C1[X(C32H19BrMnN3O3S2)]
 Deg. of freedom   177
 Full point group                 C1      NOp   1
 Largest Abelian subgroup         C1      NOp   1
 Largest concise Abelian subgroup C1      NOp   1
                         Standard orientation:                         
 ---------------------------------------------------------------------
 Center     Atomic      Atomic             Coordinates (Angstroms)
 Number     Number       Type             X           Y           Z
 ---------------------------------------------------------------------
      1         25           0        1.496732   -0.030852   -0.052560
      2          6           0        2.619494   -1.370666   -0.559230
      3          8           0        3.308566   -2.236682   -0.849009
      4          6           0        2.643828    1.299553   -0.527896
      5          8           0        3.347926    2.159632   -0.798787
      6          6           0        0.780910   -0.005455   -1.698089
      7          7           0        0.124349    1.446197    0.720760
      8          6           0       -0.489830    3.116863    2.326727
      9          6           0       -1.750500    3.249688    1.751873
     10          6           0       -1.074893    1.609701    0.153541
     11          1           0       -0.200685    3.707282    3.196405
     12          1           0       -2.487133    3.941762    2.165379
     13          7           0        4.256667   -0.039744   -3.239478
     14          6           0        5.172008   -0.011353   -2.530837
     15          6           0        6.301575    0.025502   -1.640329
     16          6           0        6.100049   -0.018433   -0.252802
     17          6           0        7.199774    0.019922    0.598912
     18          6           0        7.598751    0.106779   -2.168384
     19          1           0        5.093441   -0.080615    0.164781
     20          1           0        7.745055    0.140521   -3.249193
     21          7           0        0.095129   -1.499477    0.683314
     22          6           0       -0.545838   -3.206561    2.239815
     23          6           0       -1.810938   -3.296952    1.666443
     24          1           0       -0.265082   -3.828948    3.089725
     25          6           0        0.408498    2.200897    1.794960
     26          1           0        1.390612    2.048447    2.243935
     27          6           0        0.368467   -2.292715    1.732278
     28          1           0        1.355216   -2.173883    2.181141
     29          1           0        7.042730   -0.013488    1.678549
     30          8           0        0.379197    0.009892   -2.774673
     31         16           0       -3.859772    0.009929    1.058838
     32         16           0       -6.602496    0.056683   -0.580564
     33          6           0       -2.060934    2.468599    0.639570
     34          6           0       -3.387379    2.504758   -0.037572
     35          6           0       -3.783050    3.639899   -0.751711
     36          6           0       -4.995145    3.662680   -1.437824
     37          6           0       -5.828491    2.547694   -1.424875
     38          6           0       -5.469634    1.421349   -0.680437
     39          6           0       -4.255632    1.398291    0.019169
     40          1           0       -3.117274    4.504736   -0.784973
     41          1           0       -5.284865    4.549645   -2.003835
     42          1           0       -6.766072    2.549979   -1.984253
     43          6           0       -4.283904   -1.346296   -0.011746
     44          6           0       -5.498680   -1.329204   -0.710215
     45          6           0       -5.881878   -2.431672   -1.477857
     46          6           0       -5.072014   -3.563254   -1.515707
     47          6           0       -3.858748   -3.579993   -0.831557
     48          6           0       -3.438533   -2.468779   -0.094053
     49          1           0       -6.819923   -2.402521   -2.035696
     50          1           0       -5.380753   -4.431904   -2.099785
     51          1           0       -3.210828   -4.457342   -0.884499
     52          6           0       -2.110220   -2.475871    0.580197
     53          1           0       -2.559232   -3.987316    2.061472
     54          6           0       -1.109548   -1.621089    0.117045
     55          1           0       -1.314611   -1.013105   -0.763250
     56          1           0       -1.287265    1.033769   -0.746288
     57          6           0        8.490920    0.100720    0.076006
     58          6           0        8.689250    0.143850   -1.304945
     59          1           0        9.699687    0.207109   -1.712709
     60          1           0        9.349898    0.130447    0.749504
     61         35           0        2.896289   -0.072038    2.182284
 ---------------------------------------------------------------------
 Rotational constants (GHZ):           0.1361934           0.0383945           0.0361396
 Basis read from rwf:  (5D, 7F)
 There are   800 symmetry adapted cartesian basis functions of A   symmetry.
 There are   749 symmetry adapted basis functions of A   symmetry.
   749 basis functions,  1349 primitive gaussians,   800 cartesian basis functions
   174 alpha electrons      174 beta electrons
       nuclear repulsion energy      6536.7768937451 Hartrees.
 NAtoms=   61 NActive=   61 NUniq=   61 SFac= 1.00D+00 NAtFMM=   60 NAOKFM=T Big=T
 Integral buffers will be    131072 words long.
 Raffenetti 2 integral format.
 Two-electron integral symmetry is turned on.
 Nuclear repulsion after empirical dispersion term =     6536.7158056001 Hartrees.
 ------------------------------------------------------------------------------
 Polarizable Continuum Model (PCM)
 =================================
 Model                : PCM.
 Atomic radii         : UFF (Universal Force Field).
 Polarization charges : Total charges.
 Charge compensation  : None.
 Solution method      : On-the-fly selection.
 Cavity type          : Scaled VdW (van der Waals Surface) (Alpha=1.100).
 Cavity algorithm     : GePol (No added spheres)
                        Default sphere list used, NSphG=   61.
                        Lebedev-Laikov grids with approx.  5.0 points / Ang**2.
                        Smoothing algorithm: York/Karplus (Gamma=1.0000).
                        Polarization charges: spherical gaussians, with
                                              point-specific exponents (IZeta= 3).
                        Self-potential: point-specific (ISelfS= 7).
                        Self-field    : sphere-specific E.n sum rule (ISelfD= 2).
 1st derivatives      : Analytical E(r).r(x)/FMM algorithm (CHGder, D1EAlg=3).
                        Cavity 1st derivative terms included.
 Solvent              : TetraHydroFuran, Eps=   7.425700 Eps(inf)=   1.974025
 ------------------------------------------------------------------------------
 One-electron integrals computed using PRISM.
 PrsmSu:  requested number of processors reduced to:  11 ShMem   1 Linda.
 NBasis=   749 RedAO= T EigKep=  2.26D-04  NBF=   749
 NBsUse=   749 1.00D-06 EigRej= -1.00D+00 NBFU=   749
 Initial guess from the checkpoint file:  "checkpoint.chk"
 B after Tr=    -0.000000   -0.000000    0.000000
         Rot=    0.999990   -0.004359   -0.000008    0.001060 Ang=  -0.51 deg.
 ExpMin= 3.93D-02 ExpMax= 2.77D+05 ExpMxC= 1.70D+04 IAcc=3 IRadAn=         5 AccDes= 0.00D+00
 Harris functional with IExCor= 4639 and IRadAn=       5 diagonalized for initial guess.
 HarFok:  IExCor= 4639 AccDes= 0.00D+00 IRadAn=         5 IDoV= 1 UseB2=F ITyADJ=14
 ICtDFT=  3500011 ScaDFX=  1.000000  1.000000  1.000000  1.000000
 FoFCou: FMM=F IPFlag=           0 FMFlag=      100000 FMFlg1=        2001
         NFxFlg=           0 DoJE=T BraDBF=F KetDBF=T FulRan=T
         wScrn=  0.000000 ICntrl=       500 IOpCl=  0 I1Cent=   200000004 NGrid=           0
         NMat0=    1 NMatS0=      1 NMatT0=    0 NMatD0=    1 NMtDS0=    0 NMtDT0=    0
 Petite list used in FoFCou.
 Requested convergence on RMS density matrix=1.00D-08 within 128 cycles.
 Requested convergence on MAX density matrix=1.00D-06.
 Requested convergence on             energy=1.00D-06.
 No special actions if energy rises.
 CoulSu:  requested number of processors reduced to:   9 ShMem   1 Linda.
 Inv3:  Mode=1 IEnd=    69062412.
 Iteration    1 A*A^-1 deviation from unit magnitude is 3.55D-15 for    728.
 Iteration    1 A*A^-1 deviation from orthogonality  is 3.16D-15 for   4494   3008.
 Iteration    1 A^-1*A deviation from unit magnitude is 3.77D-15 for    728.
 Iteration    1 A^-1*A deviation from orthogonality  is 7.29D-15 for   3679   3672.
 CoulSu:  requested number of processors reduced to:   9 ShMem   1 Linda.
 CoulSu:  requested number of processors reduced to:   9 ShMem   1 Linda.
