 Entering Gaussian System, Link 0=g16
 Initial command:
 /home1/apps/gaussian/16rA.03/g16/l1.exe "/tmp/Gau-117506.inp" -scrdir="/tmp/"
 Entering Link 1 = /home1/apps/gaussian/16rA.03/g16/l1.exe PID=    117508.
  
 Copyright (c) 1988,1990,1992,1993,1995,1998,2003,2009,2016,
            Gaussian, Inc.  All Rights Reserved.
  
 This is part of the Gaussian(R) 16 program.  It is based on
 the Gaussian(R) 09 system (copyright 2009, Gaussian, Inc.),
 the Gaussian(R) 03 system (copyright 2003, Gaussian, Inc.),
 the Gaussian(R) 98 system (copyright 1998, Gaussian, Inc.),
 the Gaussian(R) 94 system (copyright 1995, Gaussian, Inc.),
 the Gaussian 92(TM) system (copyright 1992, Gaussian, Inc.),
 the Gaussian 90(TM) system (copyright 1990, Gaussian, Inc.),
 the Gaussian 88(TM) system (copyright 1988, Gaussian, Inc.),
 the Gaussian 86(TM) system (copyright 1986, Carnegie Mellon
 University), and the Gaussian 82(TM) system (copyright 1983,
 Carnegie Mellon University). Gaussian is a federally registered
 trademark of Gaussian, Inc.
  
 This software contains proprietary and confidential information,
 including trade secrets, belonging to Gaussian, Inc.
  
 This software is provided under written license and may be
 used, copied, transmitted, or stored only in accord with that
 written license.
  
 The following legend is applicable only to US Government
 contracts under FAR:
  
                    RESTRICTED RIGHTS LEGEND
  
 Use, reproduction and disclosure by the US Government is
 subject to restrictions as set forth in subparagraphs (a)
 and (c) of the Commercial Computer Software - Restricted
 Rights clause in FAR 52.227-19.
  
 Gaussian, Inc.
 340 Quinnipiac St., Bldg. 40, Wallingford CT 06492
  
  
 ---------------------------------------------------------------
 Warning -- This program may not be used in any manner that
 competes with the business of Gaussian, Inc. or will provide
 assistance to any competitor of Gaussian, Inc.  The licensee
 of this program is prohibited from giving any competitor of
 Gaussian, Inc. access to this program.  By using this program,
 the user acknowledges that Gaussian, Inc. is engaged in the
 business of creating and licensing software in the field of
 computational chemistry and represents and warrants to the
 licensee that it is not a competitor of Gaussian, Inc. and that
 it will not use this program in any manner prohibited above.
 ---------------------------------------------------------------
  

 Cite this work as:
 Gaussian 16, Revision A.03,
 M. J. Frisch, G. W. Trucks, H. B. Schlegel, G. E. Scuseria, 
 M. A. Robb, J. R. Cheeseman, G. Scalmani, V. Barone, 
 G. A. Petersson, H. Nakatsuji, X. Li, M. Caricato, A. V. Marenich, 
 J. Bloino, B. G. Janesko, R. Gomperts, B. Mennucci, H. P. Hratchian, 
 J. V. Ortiz, A. F. Izmaylov, J. L. Sonnenberg, D. Williams-Young, 
 F. Ding, F. Lipparini, F. Egidi, J. Goings, B. Peng, A. Petrone, 
 T. Henderson, D. Ranasinghe, V. G. Zakrzewski, J. Gao, N. Rega, 
 G. Zheng, W. Liang, M. Hada, M. Ehara, K. Toyota, R. Fukuda, 
 J. Hasegawa, M. Ishida, T. Nakajima, Y. Honda, O. Kitao, H. Nakai, 
 T. Vreven, K. Throssell, J. A. Montgomery, Jr., J. E. Peralta, 
 F. Ogliaro, M. J. Bearpark, J. J. Heyd, E. N. Brothers, K. N. Kudin, 
 V. N. Staroverov, T. A. Keith, R. Kobayashi, J. Normand, 
 K. Raghavachari, A. P. Rendell, J. C. Burant, S. S. Iyengar, 
 J. Tomasi, M. Cossi, J. M. Millam, M. Klene, C. Adamo, R. Cammi, 
 J. W. Ochterski, R. L. Martin, K. Morokuma, O. Farkas, 
 J. B. Foresman, and D. J. Fox, Gaussian, Inc., Wallingford CT, 2016.
 
 ******************************************
 Gaussian 16:  ES64L-G16RevA.03 25-Dec-2016
                23-Dec-2022 
 ******************************************
 %RWF=myrwfile
 %NoSave
 %NProcShared=12
 Will use up to   12 processors via shared memory.
 %Chk=checkpoint.chk
 %mem=120MW
 ----------------------------------------------------------------
 # wB97XD Gen SCRF=(Solvent=TetraHydroFuran) Freq(Numer, Restart)
 ----------------------------------------------------------------
 1/35=1,38=10/6(3);
 7/8=1,25=1,44=-1/16;
 1/10=4,30=1,38=10/3;
 99//99;
 3/5=7,6=1,11=2,25=1,30=1,70=2205,71=1,72=20,74=-58,82=7/1,2,3;
 4/5=5,16=3,69=2/1;
 5/5=2,38=5,53=20,98=1/2;
 6/7=2,8=2,9=2,10=2,12=2,28=1/1;
 7/7=1/1,2,3,16;
 1/38=10/6(-5);
 7/8=1,25=1,44=-1/16;
 1/10=4,30=1,38=10/3;
 99//99;
 Restoring state from the checkpoint file "checkpoint.chk".
 ONIOM results not found on unit 2.
 Title:  TS Freq Analysis
 Route:  # wB97XD Gen SCRF=(Solvent=TetraHydroFuran) Freq(Numer)
 NDeriv=    183 NFrqRd=  0 NDerD0=      0 MskFDP=       0 MskDFD=       0 MskDF0=       0
 Re-enter D2Numr:  atom  37 IXYZ=1 step-up   number 1
 Basis read from rwf:  (5D, 7F)
   749 basis functions,  1349 primitive gaussians,   800 cartesian basis functions
   174 alpha electrons      174 beta electrons
       nuclear repulsion energy      6625.1903594341 Hartrees.
 NAtoms=   61 NActive=   61 NUniq=   61 SFac= 1.00D+00 NAtFMM=   60 NAOKFM=T Big=T
 Integral buffers will be    131072 words long.
 Raffenetti 2 integral format.
 Two-electron integral symmetry is turned off.
 Nuclear repulsion after empirical dispersion term =     6625.1209217399 Hartrees.
 ------------------------------------------------------------------------------
 Polarizable Continuum Model (PCM)
 =================================
 Model                : PCM.
 Atomic radii         : UFF (Universal Force Field).
 Polarization charges : Total charges.
 Charge compensation  : None.
 Solution method      : On-the-fly selection.
 Cavity type          : Scaled VdW (van der Waals Surface) (Alpha=1.100).
 Cavity algorithm     : GePol (No added spheres)
                        Default sphere list used, NSphG=   61.
                        Lebedev-Laikov grids with approx.  5.0 points / Ang**2.
                        Smoothing algorithm: York/Karplus (Gamma=1.0000).
                        Polarization charges: spherical gaussians, with
                                              point-specific exponents (IZeta= 3).
                        Self-potential: point-specific (ISelfS= 7).
                        Self-field    : sphere-specific E.n sum rule (ISelfD= 2).
 1st derivatives      : Analytical E(r).r(x)/FMM algorithm (CHGder, D1EAlg=3).
                        Cavity 1st derivative terms included.
 Solvent              : TetraHydroFuran, Eps=   7.425700 Eps(inf)=   1.974025
 ------------------------------------------------------------------------------
 One-electron integrals computed using PRISM.
 NBasis=   749 RedAO= T EigKep=  2.25D-04  NBF=   749
 NBsUse=   749 1.00D-06 EigRej= -1.00D+00 NBFU=   749
 Initial guess from the checkpoint file:  "checkpoint.chk"
 B after Tr=    -0.000033   -0.000000   -0.000000
         Rot=    1.000000   -0.000000   -0.000001    0.000002 Ang=  -0.00 deg.
 Requested convergence on RMS density matrix=1.00D-08 within 128 cycles.
 Requested convergence on MAX density matrix=1.00D-06.
 Requested convergence on             energy=1.00D-06.
 No special actions if energy rises.
 Inv3:  Mode=1 IEnd=    68516523.
 Iteration    1 A*A^-1 deviation from unit magnitude is 3.11D-15 for   2971.
 Iteration    1 A*A^-1 deviation from orthogonality  is 2.66D-15 for   3404   2053.
 Iteration    1 A^-1*A deviation from unit magnitude is 3.33D-15 for   3339.
 Iteration    1 A^-1*A deviation from orthogonality  is 4.00D-14 for   4179   4127.
 Error on total polarization charges =  0.02602
 SCF Done:  E(RwB97XD) =  -6140.23095989     A.U. after    7 cycles
            NFock=  7  Conv=0.85D-08     -V/T= 2.0038

 **********************************************************************

            Population analysis using the SCF density.

 **********************************************************************

 Alpha  occ. eigenvalues -- -482.95274-235.72055 -89.04536 -89.04093 -62.53342
 Alpha  occ. eigenvalues --  -56.33893 -56.33892 -56.33891 -27.48762 -23.54725
 Alpha  occ. eigenvalues --  -23.54308 -23.54256 -19.35890 -19.35743 -19.35553
 Alpha  occ. eigenvalues --  -14.51751 -14.51204 -14.46906 -10.43294 -10.43207
 Alpha  occ. eigenvalues --  -10.43151 -10.37940 -10.37528 -10.37465 -10.36705
 Alpha  occ. eigenvalues --  -10.36398 -10.36273 -10.36250 -10.35967 -10.35870
 Alpha  occ. eigenvalues --  -10.35784 -10.35367 -10.35316 -10.34887 -10.34818
 Alpha  occ. eigenvalues --  -10.34719 -10.34664 -10.34122 -10.33604 -10.33514
 Alpha  occ. eigenvalues --  -10.33193 -10.33154 -10.33029 -10.33000 -10.32798
 Alpha  occ. eigenvalues --  -10.32783 -10.32738 -10.32591 -10.32517 -10.32473
 Alpha  occ. eigenvalues --   -8.70110  -8.09548  -8.09239  -6.51786  -6.51784
 Alpha  occ. eigenvalues --   -6.51780  -6.05014  -6.04700  -6.04622  -6.04304
 Alpha  occ. eigenvalues --   -6.03986  -6.03673  -3.28234  -2.62295  -2.62294
 Alpha  occ. eigenvalues --   -2.62290  -2.62289  -2.62288  -2.14136  -2.13168
 Alpha  occ. eigenvalues --   -2.13036  -1.24869  -1.24718  -1.24483  -1.09363
 Alpha  occ. eigenvalues --   -1.08622  -1.02442  -1.01584  -0.99219  -0.98078
 Alpha  occ. eigenvalues --   -0.95323  -0.94128  -0.92547  -0.91840  -0.90419
 Alpha  occ. eigenvalues --   -0.88960  -0.88354  -0.86890  -0.86611  -0.85994
 Alpha  occ. eigenvalues --   -0.83390  -0.79269  -0.76915  -0.76363  -0.76234
 Alpha  occ. eigenvalues --   -0.75576  -0.74968  -0.74415  -0.72793  -0.72229
 Alpha  occ. eigenvalues --   -0.71060  -0.70409  -0.69290  -0.67526  -0.66320
 Alpha  occ. eigenvalues --   -0.66129  -0.65994  -0.65700  -0.64996  -0.62868
 Alpha  occ. eigenvalues --   -0.62405  -0.61612  -0.60464  -0.59532  -0.59414
 Alpha  occ. eigenvalues --   -0.58660  -0.58202  -0.57944  -0.57840  -0.57743
 Alpha  occ. eigenvalues --   -0.57557  -0.57458  -0.57336  -0.56431  -0.56253
 Alpha  occ. eigenvalues --   -0.55610  -0.55176  -0.55018  -0.54836  -0.54367
 Alpha  occ. eigenvalues --   -0.53776  -0.53548  -0.53262  -0.53050  -0.52991
 Alpha  occ. eigenvalues --   -0.52770  -0.52512  -0.51950  -0.51926  -0.50948
 Alpha  occ. eigenvalues --   -0.49987  -0.49575  -0.48873  -0.48692  -0.48409
 Alpha  occ. eigenvalues --   -0.47954  -0.46349  -0.46238  -0.45913  -0.45808
 Alpha  occ. eigenvalues --   -0.44849  -0.44776  -0.44034  -0.43757  -0.42955
 Alpha  occ. eigenvalues --   -0.42359  -0.41312  -0.40788  -0.40346  -0.38925
 Alpha  occ. eigenvalues --   -0.38039  -0.37432  -0.35994  -0.35739  -0.35224
 Alpha  occ. eigenvalues --   -0.34728  -0.34487  -0.34275  -0.33381  -0.31676
 Alpha  occ. eigenvalues --   -0.30544  -0.29606  -0.29565  -0.29543
 Alpha virt. eigenvalues --   -0.02508  -0.00512  -0.00120   0.00236   0.00648
 Alpha virt. eigenvalues --    0.01212   0.01913   0.02827   0.03132   0.03463
 Alpha virt. eigenvalues --    0.03689   0.04095   0.04495   0.05581   0.05820
 Alpha virt. eigenvalues --    0.08208   0.08605   0.08738   0.08855   0.09358
 Alpha virt. eigenvalues --    0.10018   0.10628   0.12159   0.12467   0.13375
 Alpha virt. eigenvalues --    0.13504   0.13894   0.14355   0.14412   0.15198
 Alpha virt. eigenvalues --    0.15843   0.15994   0.16216   0.17147   0.17576
 Alpha virt. eigenvalues --    0.18172   0.18309   0.18732   0.18901   0.19422
 Alpha virt. eigenvalues --    0.19708   0.20133   0.20949   0.21044   0.21421
 Alpha virt. eigenvalues --    0.21650   0.21886   0.22411   0.23094   0.23244
 Alpha virt. eigenvalues --    0.23580   0.23701   0.24057   0.24594   0.25251
 Alpha virt. eigenvalues --    0.25883   0.26614   0.26872   0.27641   0.28156
 Alpha virt. eigenvalues --    0.28423   0.28820   0.29450   0.30431   0.31286
 Alpha virt. eigenvalues --    0.31867   0.32097   0.32296   0.32647   0.32923
 Alpha virt. eigenvalues --    0.33235   0.33414   0.34226   0.34826   0.34831
 Alpha virt. eigenvalues --    0.35324   0.35690   0.36117   0.36476   0.36863
 Alpha virt. eigenvalues --    0.37374   0.37543   0.37880   0.38577   0.38730
 Alpha virt. eigenvalues --    0.39147   0.39447   0.39809   0.40483   0.40928
 Alpha virt. eigenvalues --    0.41550   0.42052   0.42529   0.42692   0.43284
 Alpha virt. eigenvalues --    0.44391   0.44629   0.45785   0.46291   0.46587
 Alpha virt. eigenvalues --    0.47373   0.47499   0.48000   0.48204   0.48688
 Alpha virt. eigenvalues --    0.49252   0.49426   0.49710   0.50805   0.50999
 Alpha virt. eigenvalues --    0.51074   0.51626   0.52106   0.52219   0.52655
 Alpha virt. eigenvalues --    0.53006   0.53430   0.53699   0.53914   0.54335
 Alpha virt. eigenvalues --    0.54650   0.54794   0.55073   0.55416   0.55631
 Alpha virt. eigenvalues --    0.56452   0.56671   0.56969   0.57337   0.57968
 Alpha virt. eigenvalues --    0.58472   0.58773   0.59982   0.60265   0.60494
 Alpha virt. eigenvalues --    0.60708   0.60985   0.61106   0.61984   0.62670
 Alpha virt. eigenvalues --    0.63623   0.63811   0.64164   0.64595   0.64866
 Alpha virt. eigenvalues --    0.65165   0.65317   0.65928   0.66179   0.66456
 Alpha virt. eigenvalues --    0.66592   0.67164   0.67516   0.68572   0.69031
 Alpha virt. eigenvalues --    0.69122   0.69717   0.69869   0.70715   0.70890
 Alpha virt. eigenvalues --    0.71163   0.71429   0.71632   0.71745   0.71881
 Alpha virt. eigenvalues --    0.72182   0.72496   0.72865   0.73033   0.73209
 Alpha virt. eigenvalues --    0.73610   0.73950   0.74119   0.74498   0.75106
 Alpha virt. eigenvalues --    0.75419   0.75620   0.76065   0.76351   0.76813
 Alpha virt. eigenvalues --    0.77312   0.77499   0.77677   0.77773   0.78094
 Alpha virt. eigenvalues --    0.78191   0.79064   0.79463   0.79649   0.80221
 Alpha virt. eigenvalues --    0.80395   0.80656   0.81120   0.81378   0.82180
 Alpha virt. eigenvalues --    0.82229   0.82552   0.82730   0.83166   0.83487
 Alpha virt. eigenvalues --    0.83689   0.83766   0.84157   0.84362   0.84485
 Alpha virt. eigenvalues --    0.84616   0.85258   0.85658   0.85881   0.85975
 Alpha virt. eigenvalues --    0.86057   0.86475   0.87038   0.87341   0.87460
 Alpha virt. eigenvalues --    0.87917   0.88306   0.88746   0.89197   0.89260
 Alpha virt. eigenvalues --    0.89623   0.90064   0.90497   0.90792   0.91022
 Alpha virt. eigenvalues --    0.91247   0.92242   0.92356   0.92597   0.93382
 Alpha virt. eigenvalues --    0.93832   0.94102   0.94703   0.95288   0.95861
 Alpha virt. eigenvalues --    0.96580   0.97207   0.97390   0.98977   0.99720
 Alpha virt. eigenvalues --    0.99996   1.00925   1.01638   1.02539   1.02782
 Alpha virt. eigenvalues --    1.03163   1.04268   1.05067   1.05910   1.06498
 Alpha virt. eigenvalues --    1.07188   1.07704   1.09126   1.09364   1.10365
 Alpha virt. eigenvalues --    1.11020   1.11693   1.11981   1.12274   1.13056
 Alpha virt. eigenvalues --    1.13363   1.13461   1.14562   1.15282   1.15864
 Alpha virt. eigenvalues --    1.16354   1.16548   1.17676   1.19461   1.19894
 Alpha virt. eigenvalues --    1.20159   1.21353   1.22145   1.22669   1.23513
 Alpha virt. eigenvalues --    1.23944   1.24440   1.25049   1.25724   1.26910
 Alpha virt. eigenvalues --    1.27364   1.27959   1.28111   1.28900   1.29006
 Alpha virt. eigenvalues --    1.29509   1.29620   1.29980   1.30280   1.31132
 Alpha virt. eigenvalues --    1.31904   1.32441   1.32802   1.33064   1.34346
 Alpha virt. eigenvalues --    1.34839   1.35096   1.35692   1.35926   1.36018
 Alpha virt. eigenvalues --    1.36432   1.36570   1.37068   1.37272   1.37680
 Alpha virt. eigenvalues --    1.38601   1.39207   1.39460   1.40422   1.41318
 Alpha virt. eigenvalues --    1.42247   1.44173   1.45976   1.47448   1.48018
 Alpha virt. eigenvalues --    1.48786   1.49834   1.51050   1.52913   1.54597
 Alpha virt. eigenvalues --    1.56328   1.56849   1.57909   1.58456   1.60191
 Alpha virt. eigenvalues --    1.60984   1.61521   1.62726   1.63578   1.64717
 Alpha virt. eigenvalues --    1.64817   1.65987   1.67768   1.68390   1.68788
 Alpha virt. eigenvalues --    1.69302   1.70027   1.70308   1.70856   1.71199
 Alpha virt. eigenvalues --    1.72935   1.73120   1.73304   1.73913   1.74794
 Alpha virt. eigenvalues --    1.75122   1.75661   1.76444   1.76726   1.76754
 Alpha virt. eigenvalues --    1.77163   1.77676   1.78140   1.78375   1.79134
 Alpha virt. eigenvalues --    1.79408   1.79824   1.80177   1.80364   1.80584
 Alpha virt. eigenvalues --    1.81022   1.81454   1.81724   1.82467   1.82597
 Alpha virt. eigenvalues --    1.83673   1.83911   1.84132   1.84652   1.85654
 Alpha virt. eigenvalues --    1.86012   1.86325   1.86722   1.87283   1.87628
 Alpha virt. eigenvalues --    1.88026   1.88587   1.88806   1.89020   1.89528
 Alpha virt. eigenvalues --    1.90077   1.90683   1.91021   1.91812   1.92264
 Alpha virt. eigenvalues --    1.92635   1.93486   1.93762   1.94784   1.95019
 Alpha virt. eigenvalues --    1.96312   1.97782   1.98188   1.99061   1.99676
 Alpha virt. eigenvalues --    2.00175   2.00469   2.01057   2.01629   2.01953
 Alpha virt. eigenvalues --    2.02510   2.02720   2.02898   2.03649   2.04146
 Alpha virt. eigenvalues --    2.04890   2.05292   2.06258   2.06403   2.06614
 Alpha virt. eigenvalues --    2.06730   2.07436   2.08572   2.08903   2.09914
 Alpha virt. eigenvalues --    2.10527   2.10959   2.11846   2.12121   2.12313
 Alpha virt. eigenvalues --    2.14515   2.16466   2.17310   2.17837   2.18352
 Alpha virt. eigenvalues --    2.18565   2.19159   2.19436   2.21120   2.22083
 Alpha virt. eigenvalues --    2.22459   2.23063   2.23474   2.23667   2.24744
 Alpha virt. eigenvalues --    2.26505   2.26836   2.29257   2.29643   2.30465
 Alpha virt. eigenvalues --    2.30918   2.31103   2.31518   2.31810   2.32472
 Alpha virt. eigenvalues --    2.33626   2.34269   2.35109   2.35529   2.36174
 Alpha virt. eigenvalues --    2.36723   2.37119   2.37535   2.38241   2.38476
 Alpha virt. eigenvalues --    2.38552   2.39066   2.39311   2.39548   2.40286
 Alpha virt. eigenvalues --    2.40840   2.41742   2.42260   2.43575   2.45246
 Alpha virt. eigenvalues --    2.46179   2.46947   2.48627   2.49081   2.49373
 Alpha virt. eigenvalues --    2.52477   2.53434   2.54803   2.56186   2.57970
 Alpha virt. eigenvalues --    2.59192   2.59301   2.60151   2.62464   2.64985
 Alpha virt. eigenvalues --    2.66567   2.66800   2.67533   2.68002   2.68218
 Alpha virt. eigenvalues --    2.68339   2.68505   2.68570   2.68770   2.68859
 Alpha virt. eigenvalues --    2.69021   2.69353   2.69496   2.69550   2.70848
 Alpha virt. eigenvalues --    2.72009   2.72592   2.75860   2.76340   2.77828
 Alpha virt. eigenvalues --    2.78548   2.80059   2.80282   2.81001   2.82228
 Alpha virt. eigenvalues --    2.82581   2.82702   2.83684   2.84364   2.85061
 Alpha virt. eigenvalues --    2.86375   2.86884   2.88120   2.88864   2.90964
 Alpha virt. eigenvalues --    2.92479   2.92644   2.95540   2.98095   2.98706
 Alpha virt. eigenvalues --    2.99093   3.01284   3.03010   3.03897   3.04161
 Alpha virt. eigenvalues --    3.04734   3.07150   3.08105   3.08632   3.10224
 Alpha virt. eigenvalues --    3.10518   3.14346   3.15654   3.15915   3.19064
 Alpha virt. eigenvalues --    3.19936   3.21074   3.22029   3.22623   3.22736
 Alpha virt. eigenvalues --    3.23231   3.23873   3.28566   3.28993   3.31229
 Alpha virt. eigenvalues --    3.36829   3.38740   3.39180   3.42249   3.44365
 Alpha virt. eigenvalues --    3.45736   3.49818   3.51895   3.54034   3.57085
 Alpha virt. eigenvalues --    3.58187   3.59552   3.61042   3.61543   3.61809
 Alpha virt. eigenvalues --    3.62138   3.64034   3.69389   3.70300   3.74854
 Alpha virt. eigenvalues --    3.75189   3.76146   3.76750   3.78037   3.78850
 Alpha virt. eigenvalues --    3.80302   3.90267   3.93519   4.02176   4.05725
 Electronic spatial extent (au):  <R**2>=          23960.0178
 Charge=             -0.0000 electrons
 Dipole moment (field-independent basis, Debye):
    X=             28.7835    Y=              8.4257    Z=             -0.3503  Tot=             29.9934
 Quadrupole moment (field-independent basis, Debye-Ang):
   XX=           -404.0834   YY=           -239.0118   ZZ=           -255.3093
   XY=            -38.8026   XZ=             16.4826   YZ=             21.8741
 Traceless Quadrupole moment (field-independent basis, Debye-Ang):
   XX=           -104.6152   YY=             60.4563   ZZ=             44.1588
   XY=            -38.8026   XZ=             16.4826   YZ=             21.8741
 Octapole moment (field-independent basis, Debye-Ang**2):
  XXX=            883.9990  YYY=             14.7379  ZZZ=             17.1799  XYY=             95.4347
  XXY=            342.5598  XXZ=           -130.5710  XZZ=              2.7164  YZZ=             -6.2054
  YYZ=              5.8590  XYZ=              4.4280
 Hexadecapole moment (field-independent basis, Debye-Ang**3):
 XXXX=         -22198.7403 YYYY=          -7243.4484 ZZZZ=          -5638.4152 XXXY=          -1354.2210
 XXXZ=            351.4579 YYYX=             57.4015 YYYZ=            194.4902 ZZZX=            176.5051
 ZZZY=            138.3422 XXYY=          -4374.0504 XXZZ=          -3842.5507 YYZZ=          -1954.6228
 XXYZ=            210.9646 YYXZ=            -24.1706 ZZXY=           -166.0257
 N-N= 6.625120921740D+03 E-N=-2.778704196536D+04  KE= 6.117235395414D+03
 D1PCM: PCM CHGder 1st derivatives, ID1Alg=3 FixD1E=F DoIter=F DoCFld=F I1PDM=0.
 Calling FoFJK, ICntrl=      2127 FMM=T ISym2X=0 I1Cent= 0 IOpClX= 0 NMat=1 NMatS=1 NMatT=0.
 -------------------------------------------------------------------
 Center     Atomic                   Forces (Hartrees/Bohr)
 Number     Number              X              Y              Z
 -------------------------------------------------------------------
      1       25           0.000000509   -0.000003222   -0.000019140
      2        6           0.000015377    0.000000699    0.000011161
      3        8          -0.000013366   -0.000003395   -0.000003121
      4        6          -0.000003071    0.000002245   -0.000003409
      5        8           0.000001835   -0.000000359   -0.000000445
      6        6           0.000001185   -0.000003915   -0.000003817
      7        7           0.000006831    0.000002814    0.000003156
      8        6           0.000000556   -0.000000854    0.000002449
      9        6          -0.000003057    0.000000526   -0.000005186
     10        6           0.000000884   -0.000003782    0.000005444
     11        1           0.000001896   -0.000001648    0.000001459
     12        1          -0.000000034   -0.000000143    0.000004305
     13        7          -0.000005276    0.000009952    0.000009387
     14        6          -0.000000304    0.000001876   -0.000002582
     15        6          -0.000006296   -0.000008355   -0.000001855
     16        6           0.000002697    0.000004179    0.000003847
     17        6           0.000000401    0.000003470    0.000002103
     18        6          -0.000012917    0.000029237   -0.000006675
     19        1          -0.000001045    0.000002123    0.000001124
     20        1           0.000012487   -0.000008691    0.000011261
     21        7           0.000003675    0.000000292   -0.000006747
     22        6           0.000002498    0.000004156   -0.000003507
     23        6          -0.000000109    0.000002759   -0.000004725
     24        1          -0.000000008   -0.000014905   -0.000002289
     25        6          -0.000004037    0.000002958    0.000000730
     26        1          -0.000001661   -0.000001753    0.000000014
     27        6           0.000000191   -0.000000772   -0.000000690
     28        1           0.000001652    0.000002912   -0.000003193
     29        1           0.000000180    0.000002807   -0.000000866
     30        8          -0.000000875   -0.000003483    0.000000023
     31       16          -0.000008872    0.000000014    0.000001176
     32       16           0.000004113   -0.000038440   -0.000035112
     33        6          -0.000000334   -0.000000979    0.000004162
     34        6          -0.000014192   -0.000032686   -0.000030432
     35        6          -0.000101515   -0.000008784    0.000011976
     36        6          -0.000501446   -0.000221055   -0.000191887
     37        6           0.001438638    0.000048170   -0.000073292
     38        6          -0.000250706    0.000104042    0.000122213
     39        6           0.000028844    0.000044132    0.000046374
     40        1          -0.000008470   -0.000000434    0.000006963
     41        1           0.000014906    0.000005569    0.000013018
     42        1          -0.000600695    0.000078249    0.000150899
     43        6           0.000003706   -0.000008095    0.000000707
     44        6          -0.000008428    0.000002370   -0.000007129
     45        6           0.000001667   -0.000005618   -0.000001290
     46        6          -0.000002184   -0.000000625   -0.000000213
     47        6           0.000002643   -0.000000726   -0.000005093
     48        6           0.000000252    0.000000821   -0.000000272
     49        1           0.000000007   -0.000001729   -0.000001802
     50        1           0.000000728   -0.000001683   -0.000003298
     51        1           0.000000909   -0.000000505   -0.000002746
     52        6          -0.000000957    0.000001867   -0.000001371
     53        1           0.000001568    0.000002145   -0.000002578
     54        6           0.000000711    0.000002671   -0.000004066
     55        1          -0.000000662   -0.000000142   -0.000000207
     56        1          -0.000000646   -0.000001379    0.000000981
     57        6          -0.000002158    0.000001242    0.000003670
     58        6           0.000005452    0.000003622   -0.000000397
     59        1          -0.000000779    0.000001804    0.000002977
     60        1           0.000000128    0.000002832    0.000000978
     61       35          -0.000003028    0.000005603    0.000006878
 -------------------------------------------------------------------
 Cartesian Forces:  Max     0.001438638 RMS     0.000126271
 NDeriv=    183 NFrqRd=  0 NDerD0=      0 MskFDP=       0 MskDFD=       0 MskDF0=       0
 Re-enter D2Numr:  atom  37 IXYZ=1 step-down number 1
 Basis read from rwf:  (5D, 7F)
   749 basis functions,  1349 primitive gaussians,   800 cartesian basis functions
   174 alpha electrons      174 beta electrons
       nuclear repulsion energy      6625.1835487090 Hartrees.
 NAtoms=   61 NActive=   61 NUniq=   61 SFac= 1.00D+00 NAtFMM=   60 NAOKFM=T Big=T
 Integral buffers will be    131072 words long.
 Raffenetti 2 integral format.
 Two-electron integral symmetry is turned off.
 Nuclear repulsion after empirical dispersion term =     6625.1141106767 Hartrees.
 ------------------------------------------------------------------------------
 Polarizable Continuum Model (PCM)
 =================================
 Model                : PCM.
 Atomic radii         : UFF (Universal Force Field).
 Polarization charges : Total charges.
 Charge compensation  : None.
 Solution method      : On-the-fly selection.
 Cavity type          : Scaled VdW (van der Waals Surface) (Alpha=1.100).
 Cavity algorithm     : GePol (No added spheres)
                        Default sphere list used, NSphG=   61.
                        Lebedev-Laikov grids with approx.  5.0 points / Ang**2.
                        Smoothing algorithm: York/Karplus (Gamma=1.0000).
                        Polarization charges: spherical gaussians, with
                                              point-specific exponents (IZeta= 3).
                        Self-potential: point-specific (ISelfS= 7).
                        Self-field    : sphere-specific E.n sum rule (ISelfD= 2).
 1st derivatives      : Analytical E(r).r(x)/FMM algorithm (CHGder, D1EAlg=3).
                        Cavity 1st derivative terms included.
 Solvent              : TetraHydroFuran, Eps=   7.425700 Eps(inf)=   1.974025
 ------------------------------------------------------------------------------
 One-electron integrals computed using PRISM.
 NBasis=   749 RedAO= T EigKep=  2.25D-04  NBF=   749
 NBsUse=   749 1.00D-06 EigRej= -1.00D+00 NBFU=   749
 Initial guess from the checkpoint file:  "checkpoint.chk"
 B after Tr=     0.000000    0.000033   -0.000000
         Rot=    1.000000   -0.000003   -0.000000   -0.000002 Ang=  -0.00 deg.
 Requested convergence on RMS density matrix=1.00D-08 within 128 cycles.
 Requested convergence on MAX density matrix=1.00D-06.
 Requested convergence on             energy=1.00D-06.
 No special actions if energy rises.
 Inv3:  Mode=1 IEnd=    68573883.
 Iteration    1 A*A^-1 deviation from unit magnitude is 4.22D-15 for   3305.
 Iteration    1 A*A^-1 deviation from orthogonality  is 2.33D-15 for   3832    488.
 Iteration    1 A^-1*A deviation from unit magnitude is 4.44D-15 for    222.
 Iteration    1 A^-1*A deviation from orthogonality  is 5.61D-14 for   4141   4129.
 Error on total polarization charges =  0.02602
 SCF Done:  E(RwB97XD) =  -6140.23096054     A.U. after    8 cycles
            NFock=  8  Conv=0.92D-08     -V/T= 2.0038

 **********************************************************************

            Population analysis using the SCF density.

 **********************************************************************

 Alpha  occ. eigenvalues -- -482.95274-235.72055 -89.04537 -89.04089 -62.53342
 Alpha  occ. eigenvalues --  -56.33893 -56.33892 -56.33891 -27.48762 -23.54725
 Alpha  occ. eigenvalues --  -23.54308 -23.54256 -19.35890 -19.35743 -19.35553
 Alpha  occ. eigenvalues --  -14.51751 -14.51205 -14.46906 -10.43294 -10.43207
 Alpha  occ. eigenvalues --  -10.43151 -10.37940 -10.37528 -10.37465 -10.36705
 Alpha  occ. eigenvalues --  -10.36397 -10.36273 -10.36251 -10.35966 -10.35869
 Alpha  occ. eigenvalues --  -10.35784 -10.35367 -10.35316 -10.34886 -10.34818
 Alpha  occ. eigenvalues --  -10.34720 -10.34665 -10.34122 -10.33604 -10.33514
 Alpha  occ. eigenvalues --  -10.33194 -10.33153 -10.33032 -10.32999 -10.32798
 Alpha  occ. eigenvalues --  -10.32783 -10.32738 -10.32602 -10.32517 -10.32473
 Alpha  occ. eigenvalues --   -8.70110  -8.09548  -8.09235  -6.51786  -6.51784
 Alpha  occ. eigenvalues --   -6.51780  -6.05015  -6.04696  -6.04622  -6.04301
 Alpha  occ. eigenvalues --   -6.03987  -6.03670  -3.28234  -2.62295  -2.62294
 Alpha  occ. eigenvalues --   -2.62291  -2.62289  -2.62288  -2.14136  -2.13168
 Alpha  occ. eigenvalues --   -2.13036  -1.24869  -1.24718  -1.24483  -1.09363
 Alpha  occ. eigenvalues --   -1.08623  -1.02442  -1.01584  -0.99217  -0.98078
 Alpha  occ. eigenvalues --   -0.95323  -0.94128  -0.92541  -0.91840  -0.90419
 Alpha  occ. eigenvalues --   -0.88960  -0.88354  -0.86889  -0.86611  -0.85994
 Alpha  occ. eigenvalues --   -0.83386  -0.79269  -0.76915  -0.76364  -0.76235
 Alpha  occ. eigenvalues --   -0.75576  -0.74968  -0.74415  -0.72791  -0.72229
 Alpha  occ. eigenvalues --   -0.71061  -0.70411  -0.69290  -0.67525  -0.66320
 Alpha  occ. eigenvalues --   -0.66129  -0.65994  -0.65700  -0.64995  -0.62868
 Alpha  occ. eigenvalues --   -0.62405  -0.61612  -0.60464  -0.59532  -0.59414
 Alpha  occ. eigenvalues --   -0.58657  -0.58201  -0.57944  -0.57840  -0.57743
 Alpha  occ. eigenvalues --   -0.57561  -0.57459  -0.57336  -0.56433  -0.56253
 Alpha  occ. eigenvalues --   -0.55610  -0.55176  -0.55018  -0.54838  -0.54367
 Alpha  occ. eigenvalues --   -0.53777  -0.53549  -0.53262  -0.53050  -0.52988
 Alpha  occ. eigenvalues --   -0.52770  -0.52511  -0.51950  -0.51926  -0.50948
 Alpha  occ. eigenvalues --   -0.49989  -0.49572  -0.48877  -0.48693  -0.48410
 Alpha  occ. eigenvalues --   -0.47954  -0.46349  -0.46238  -0.45914  -0.45813
 Alpha  occ. eigenvalues --   -0.44848  -0.44770  -0.44034  -0.43757  -0.42954
 Alpha  occ. eigenvalues --   -0.42359  -0.41312  -0.40788  -0.40346  -0.38925
 Alpha  occ. eigenvalues --   -0.38040  -0.37431  -0.35992  -0.35739  -0.35224
 Alpha  occ. eigenvalues --   -0.34728  -0.34487  -0.34275  -0.33381  -0.31674
 Alpha  occ. eigenvalues --   -0.30545  -0.29606  -0.29565  -0.29543
 Alpha virt. eigenvalues --   -0.02508  -0.00512  -0.00122   0.00236   0.00647
 Alpha virt. eigenvalues --    0.01214   0.01912   0.02827   0.03132   0.03463
 Alpha virt. eigenvalues --    0.03689   0.04094   0.04492   0.05581   0.05819
 Alpha virt. eigenvalues --    0.08208   0.08605   0.08738   0.08855   0.09358
 Alpha virt. eigenvalues --    0.10019   0.10629   0.12159   0.12467   0.13375
 Alpha virt. eigenvalues --    0.13504   0.13894   0.14354   0.14412   0.15198
 Alpha virt. eigenvalues --    0.15844   0.15998   0.16216   0.17147   0.17576
 Alpha virt. eigenvalues --    0.18171   0.18309   0.18731   0.18902   0.19422
 Alpha virt. eigenvalues --    0.19709   0.20134   0.20951   0.21042   0.21420
 Alpha virt. eigenvalues --    0.21650   0.21886   0.22411   0.23095   0.23245
 Alpha virt. eigenvalues --    0.23580   0.23701   0.24057   0.24594   0.25250
 Alpha virt. eigenvalues --    0.25882   0.26614   0.26872   0.27641   0.28156
 Alpha virt. eigenvalues --    0.28423   0.28821   0.29450   0.30431   0.31286
 Alpha virt. eigenvalues --    0.31868   0.32095   0.32293   0.32643   0.32920
 Alpha virt. eigenvalues --    0.33234   0.33413   0.34226   0.34822   0.34831
 Alpha virt. eigenvalues --    0.35323   0.35688   0.36115   0.36475   0.36865
 Alpha virt. eigenvalues --    0.37372   0.37543   0.37879   0.38577   0.38730
 Alpha virt. eigenvalues --    0.39147   0.39444   0.39808   0.40483   0.40928
 Alpha virt. eigenvalues --    0.41549   0.42055   0.42532   0.42692   0.43283
 Alpha virt. eigenvalues --    0.44390   0.44628   0.45784   0.46290   0.46587
 Alpha virt. eigenvalues --    0.47373   0.47499   0.48000   0.48203   0.48688
 Alpha virt. eigenvalues --    0.49250   0.49425   0.49710   0.50803   0.50998
 Alpha virt. eigenvalues --    0.51072   0.51623   0.52108   0.52221   0.52655
 Alpha virt. eigenvalues --    0.53007   0.53431   0.53700   0.53913   0.54333
 Alpha virt. eigenvalues --    0.54650   0.54795   0.55072   0.55416   0.55631
 Alpha virt. eigenvalues --    0.56451   0.56669   0.56969   0.57334   0.57969
 Alpha virt. eigenvalues --    0.58475   0.58778   0.59982   0.60265   0.60498
 Alpha virt. eigenvalues --    0.60709   0.60985   0.61106   0.61984   0.62670
 Alpha virt. eigenvalues --    0.63621   0.63811   0.64163   0.64594   0.64867
 Alpha virt. eigenvalues --    0.65165   0.65317   0.65927   0.66179   0.66456
 Alpha virt. eigenvalues --    0.66593   0.67162   0.67515   0.68571   0.69031
 Alpha virt. eigenvalues --    0.69122   0.69717   0.69869   0.70715   0.70894
 Alpha virt. eigenvalues --    0.71163   0.71430   0.71631   0.71745   0.71882
 Alpha virt. eigenvalues --    0.72189   0.72496   0.72865   0.73033   0.73210
 Alpha virt. eigenvalues --    0.73610   0.73949   0.74119   0.74500   0.75107
 Alpha virt. eigenvalues --    0.75420   0.75621   0.76067   0.76351   0.76811
 Alpha virt. eigenvalues --    0.77311   0.77499   0.77678   0.77774   0.78095
 Alpha virt. eigenvalues --    0.78187   0.79065   0.79460   0.79650   0.80218
 Alpha virt. eigenvalues --    0.80396   0.80656   0.81120   0.81377   0.82180
 Alpha virt. eigenvalues --    0.82229   0.82553   0.82727   0.83166   0.83487
 Alpha virt. eigenvalues --    0.83690   0.83765   0.84155   0.84360   0.84487
 Alpha virt. eigenvalues --    0.84614   0.85256   0.85656   0.85879   0.85971
 Alpha virt. eigenvalues --    0.86057   0.86473   0.87037   0.87340   0.87460
 Alpha virt. eigenvalues --    0.87917   0.88306   0.88745   0.89197   0.89260
 Alpha virt. eigenvalues --    0.89623   0.90064   0.90498   0.90792   0.91023
 Alpha virt. eigenvalues --    0.91248   0.92240   0.92356   0.92594   0.93382
 Alpha virt. eigenvalues --    0.93832   0.94100   0.94703   0.95287   0.95857
 Alpha virt. eigenvalues --    0.96579   0.97207   0.97389   0.98975   0.99721
 Alpha virt. eigenvalues --    0.99996   1.00922   1.01638   1.02538   1.02782
 Alpha virt. eigenvalues --    1.03161   1.04267   1.05067   1.05911   1.06498
 Alpha virt. eigenvalues --    1.07188   1.07705   1.09126   1.09364   1.10365
 Alpha virt. eigenvalues --    1.11019   1.11692   1.11981   1.12273   1.13058
 Alpha virt. eigenvalues --    1.13363   1.13461   1.14562   1.15282   1.15864
 Alpha virt. eigenvalues --    1.16354   1.16549   1.17676   1.19460   1.19893
 Alpha virt. eigenvalues --    1.20160   1.21355   1.22149   1.22670   1.23512
 Alpha virt. eigenvalues --    1.23945   1.24439   1.25048   1.25723   1.26909
 Alpha virt. eigenvalues --    1.27362   1.27960   1.28109   1.28899   1.29003
 Alpha virt. eigenvalues --    1.29509   1.29611   1.29979   1.30279   1.31134
 Alpha virt. eigenvalues --    1.31897   1.32444   1.32804   1.33063   1.34343
 Alpha virt. eigenvalues --    1.34840   1.35094   1.35684   1.35926   1.36018
 Alpha virt. eigenvalues --    1.36431   1.36570   1.37072   1.37267   1.37679
 Alpha virt. eigenvalues --    1.38598   1.39209   1.39458   1.40422   1.41315
 Alpha virt. eigenvalues --    1.42247   1.44173   1.45976   1.47448   1.48015
 Alpha virt. eigenvalues --    1.48783   1.49831   1.51053   1.52912   1.54593
 Alpha virt. eigenvalues --    1.56330   1.56847   1.57903   1.58457   1.60189
 Alpha virt. eigenvalues --    1.60986   1.61521   1.62726   1.63578   1.64714
 Alpha virt. eigenvalues --    1.64817   1.65989   1.67768   1.68391   1.68787
 Alpha virt. eigenvalues --    1.69302   1.70028   1.70307   1.70857   1.71199
 Alpha virt. eigenvalues --    1.72936   1.73121   1.73303   1.73915   1.74794
 Alpha virt. eigenvalues --    1.75122   1.75663   1.76437   1.76726   1.76743
 Alpha virt. eigenvalues --    1.77164   1.77674   1.78138   1.78373   1.79131
 Alpha virt. eigenvalues --    1.79409   1.79823   1.80176   1.80361   1.80583
 Alpha virt. eigenvalues --    1.81026   1.81454   1.81727   1.82466   1.82609
 Alpha virt. eigenvalues --    1.83673   1.83912   1.84135   1.84653   1.85653
 Alpha virt. eigenvalues --    1.86011   1.86326   1.86723   1.87280   1.87629
 Alpha virt. eigenvalues --    1.88025   1.88587   1.88806   1.89012   1.89529
 Alpha virt. eigenvalues --    1.90075   1.90681   1.91020   1.91808   1.92264
 Alpha virt. eigenvalues --    1.92635   1.93486   1.93761   1.94786   1.95022
 Alpha virt. eigenvalues --    1.96312   1.97786   1.98187   1.99061   1.99677
 Alpha virt. eigenvalues --    2.00178   2.00470   2.01060   2.01631   2.01961
 Alpha virt. eigenvalues --    2.02511   2.02721   2.02898   2.03649   2.04145
 Alpha virt. eigenvalues --    2.04890   2.05291   2.06258   2.06401   2.06606
 Alpha virt. eigenvalues --    2.06729   2.07430   2.08573   2.08902   2.09916
 Alpha virt. eigenvalues --    2.10526   2.10957   2.11845   2.12121   2.12314
 Alpha virt. eigenvalues --    2.14515   2.16469   2.17311   2.17839   2.18353
 Alpha virt. eigenvalues --    2.18565   2.19158   2.19433   2.21120   2.22083
 Alpha virt. eigenvalues --    2.22460   2.23063   2.23475   2.23665   2.24745
 Alpha virt. eigenvalues --    2.26502   2.26827   2.29257   2.29655   2.30465
 Alpha virt. eigenvalues --    2.30927   2.31101   2.31517   2.31803   2.32473
 Alpha virt. eigenvalues --    2.33621   2.34273   2.35121   2.35528   2.36173
 Alpha virt. eigenvalues --    2.36723   2.37127   2.37544   2.38241   2.38467
 Alpha virt. eigenvalues --    2.38562   2.39065   2.39312   2.39551   2.40284
 Alpha virt. eigenvalues --    2.40832   2.41741   2.42260   2.43575   2.45246
 Alpha virt. eigenvalues --    2.46179   2.46944   2.48627   2.49081   2.49368
 Alpha virt. eigenvalues --    2.52477   2.53425   2.54800   2.56184   2.57969
 Alpha virt. eigenvalues --    2.59186   2.59300   2.60145   2.62454   2.64984
 Alpha virt. eigenvalues --    2.66564   2.66799   2.67535   2.68005   2.68232
 Alpha virt. eigenvalues --    2.68338   2.68504   2.68570   2.68770   2.68858
 Alpha virt. eigenvalues --    2.69017   2.69353   2.69488   2.69550   2.70847
 Alpha virt. eigenvalues --    2.72008   2.72587   2.75860   2.76335   2.77826
 Alpha virt. eigenvalues --    2.78549   2.80061   2.80283   2.81001   2.82229
 Alpha virt. eigenvalues --    2.82591   2.82709   2.83701   2.84364   2.85061
 Alpha virt. eigenvalues --    2.86376   2.86882   2.88121   2.88867   2.90967
 Alpha virt. eigenvalues --    2.92470   2.92644   2.95540   2.98099   2.98706
 Alpha virt. eigenvalues --    2.99104   3.01275   3.03000   3.03906   3.04162
 Alpha virt. eigenvalues --    3.04755   3.07151   3.08105   3.08630   3.10224
 Alpha virt. eigenvalues --    3.10518   3.14345   3.15649   3.15915   3.19064
 Alpha virt. eigenvalues --    3.19935   3.21072   3.22028   3.22623   3.22731
 Alpha virt. eigenvalues --    3.23222   3.23872   3.28566   3.28993   3.31229
 Alpha virt. eigenvalues --    3.36828   3.38740   3.39180   3.42249   3.44365
 Alpha virt. eigenvalues --    3.45736   3.49818   3.51895   3.54034   3.57069
 Alpha virt. eigenvalues --    3.58159   3.59552   3.61042   3.61543   3.61809
 Alpha virt. eigenvalues --    3.62138   3.64034   3.69389   3.70296   3.74854
 Alpha virt. eigenvalues --    3.75189   3.76146   3.76750   3.78037   3.78850
 Alpha virt. eigenvalues --    3.80302   3.90267   3.93519   4.02176   4.05725
 Electronic spatial extent (au):  <R**2>=          23960.0795
 Charge=             -0.0000 electrons
 Dipole moment (field-independent basis, Debye):
    X=             28.7827    Y=              8.4240    Z=             -0.3510  Tot=             29.9922
 Quadrupole moment (field-independent basis, Debye-Ang):
   XX=           -404.0843   YY=           -239.0097   ZZ=           -255.3084
   XY=            -38.8115   XZ=             16.4769   YZ=             21.8769
 Traceless Quadrupole moment (field-independent basis, Debye-Ang):
   XX=           -104.6168   YY=             60.4578   ZZ=             44.1590
   XY=            -38.8115   XZ=             16.4769   YZ=             21.8769
 Octapole moment (field-independent basis, Debye-Ang**2):
  XXX=            883.9778  YYY=             14.7087  ZZZ=             17.1854  XYY=             95.4470
  XXY=            342.4953  XXZ=           -130.6133  XZZ=              2.7240  YZZ=             -6.2155
  YYZ=              5.8507  XYZ=              4.4514
 Hexadecapole moment (field-independent basis, Debye-Ang**3):
 XXXX=         -22198.9819 YYYY=          -7243.2937 ZZZZ=          -5638.4537 XXXY=          -1354.5994
 XXXZ=            351.2227 YYYX=             57.2640 YYYZ=            194.5400 ZZZX=            176.5147
 ZZZY=            138.3697 XXYY=          -4373.9070 XXZZ=          -3842.4808 YYZZ=          -1954.5806
 XXYZ=            211.1404 YYXZ=            -24.2377 ZZXY=           -166.0953
 N-N= 6.625114110677D+03 E-N=-2.778702777445D+04  KE= 6.117234562940D+03
 D1PCM: PCM CHGder 1st derivatives, ID1Alg=3 FixD1E=F DoIter=F DoCFld=F I1PDM=0.
 Calling FoFJK, ICntrl=      2127 FMM=T ISym2X=0 I1Cent= 0 IOpClX= 0 NMat=1 NMatS=1 NMatT=0.
 -------------------------------------------------------------------
 Center     Atomic                   Forces (Hartrees/Bohr)
 Number     Number              X              Y              Z
 -------------------------------------------------------------------
      1       25           0.000000484   -0.000003137   -0.000019011
      2        6           0.000015169    0.000000980    0.000011179
      3        8          -0.000013231   -0.000003608   -0.000003121
      4        6          -0.000003155    0.000002258   -0.000003575
      5        8           0.000001830   -0.000000350   -0.000000411
      6        6           0.000001360   -0.000003653   -0.000003952
      7        7           0.000007346    0.000002488    0.000003173
      8        6           0.000001252   -0.000001179    0.000002910
      9        6          -0.000002348   -0.000000649   -0.000006064
     10        6           0.000001025   -0.000003229    0.000004378
     11        1           0.000002018   -0.000001680    0.000001505
     12        1          -0.000000659   -0.000000573    0.000004321
     13        7          -0.000005391    0.000009946    0.000009242
     14        6          -0.000000133    0.000001755   -0.000002448
     15        6          -0.000006343   -0.000008302   -0.000001956
     16        6           0.000002686    0.000004258    0.000003821
     17        6           0.000000451    0.000003521    0.000002085
     18        6          -0.000012914    0.000029240   -0.000006685
     19        1          -0.000001039    0.000002112    0.000001135
     20        1           0.000012476   -0.000008720    0.000011336
     21        7           0.000003176    0.000000288   -0.000006618
     22        6           0.000002710    0.000004176   -0.000003482
     23        6          -0.000000482    0.000002875   -0.000004461
     24        1          -0.000000035   -0.000014901   -0.000002284
     25        6          -0.000003959    0.000002992    0.000000745
     26        1          -0.000001920   -0.000001792    0.000000002
     27        6           0.000000060   -0.000000788   -0.000000855
     28        1           0.000001638    0.000002920   -0.000003189
     29        1           0.000000181    0.000002801   -0.000000885
     30        8          -0.000000959   -0.000003563    0.000000092
     31       16           0.000001429   -0.000009568   -0.000002338
     32       16           0.000011945    0.000019027    0.000029279
     33        6          -0.000000360    0.000002159    0.000004441
     34        6           0.000027921    0.000067039    0.000061883
     35        6           0.000074413   -0.000071345   -0.000050146
     36        6           0.000120578    0.000290106    0.000160630
     37        6          -0.000050059   -0.000752632   -0.000512020
     38        6          -0.000023857    0.000347348    0.000245640
     39        6          -0.000113456   -0.000008989    0.000012592
     40        1          -0.000003620   -0.000010550    0.000009139
     41        1           0.000029736    0.000004225    0.000017564
     42        1          -0.000083691    0.000102261    0.000043821
     43        6           0.000001494   -0.000006280    0.000000007
     44        6           0.000004261   -0.000005945   -0.000000464
     45        6          -0.000000465    0.000000869   -0.000000108
     46        6          -0.000000534   -0.000002172   -0.000001527
     47        6           0.000000495   -0.000000156   -0.000004096
     48        6           0.000000413    0.000002233   -0.000000014
     49        1          -0.000000004   -0.000002044   -0.000001462
     50        1           0.000000647   -0.000001299   -0.000003273
     51        1           0.000000709   -0.000000500   -0.000002870
     52        6          -0.000000449    0.000001698   -0.000001777
     53        1           0.000001601    0.000002118   -0.000002671
     54        6           0.000000839    0.000002608   -0.000003863
     55        1          -0.000000551   -0.000000116   -0.000000301
     56        1          -0.000000490   -0.000001613    0.000001006
     57        6          -0.000002128    0.000001182    0.000003649
     58        6           0.000005431    0.000003575   -0.000000429
     59        1          -0.000000775    0.000001812    0.000002985
     60        1           0.000000125    0.000002849    0.000000968
     61       35          -0.000002891    0.000005614    0.000006828
 -------------------------------------------------------------------
 Cartesian Forces:  Max     0.000752632 RMS     0.000080931
 NDeriv=    183 NFrqRd=  0 NDerD0=      0 MskFDP=       0 MskDFD=       0 MskDF0=       0
 Re-enter D2Numr:  atom  37 IXYZ=2 step-up   number 1
 Basis read from rwf:  (5D, 7F)
   749 basis functions,  1349 primitive gaussians,   800 cartesian basis functions
   174 alpha electrons      174 beta electrons
       nuclear repulsion energy      6625.1498302688 Hartrees.
 NAtoms=   61 NActive=   61 NUniq=   61 SFac= 1.00D+00 NAtFMM=   60 NAOKFM=T Big=T
 Integral buffers will be    131072 words long.
 Raffenetti 2 integral format.
 Two-electron integral symmetry is turned off.
 Nuclear repulsion after empirical dispersion term =     6625.0803929849 Hartrees.
 ------------------------------------------------------------------------------
 Polarizable Continuum Model (PCM)
 =================================
 Model                : PCM.
 Atomic radii         : UFF (Universal Force Field).
 Polarization charges : Total charges.
 Charge compensation  : None.
 Solution method      : On-the-fly selection.
 Cavity type          : Scaled VdW (van der Waals Surface) (Alpha=1.100).
 Cavity algorithm     : GePol (No added spheres)
                        Default sphere list used, NSphG=   61.
                        Lebedev-Laikov grids with approx.  5.0 points / Ang**2.
                        Smoothing algorithm: York/Karplus (Gamma=1.0000).
                        Polarization charges: spherical gaussians, with
                                              point-specific exponents (IZeta= 3).
                        Self-potential: point-specific (ISelfS= 7).
                        Self-field    : sphere-specific E.n sum rule (ISelfD= 2).
 1st derivatives      : Analytical E(r).r(x)/FMM algorithm (CHGder, D1EAlg=3).
                        Cavity 1st derivative terms included.
 Solvent              : TetraHydroFuran, Eps=   7.425700 Eps(inf)=   1.974025
 ------------------------------------------------------------------------------
 One-electron integrals computed using PRISM.
 NBasis=   749 RedAO= T EigKep=  2.25D-04  NBF=   749
 NBsUse=   749 1.00D-06 EigRej= -1.00D+00 NBFU=   749
 Initial guess from the checkpoint file:  "checkpoint.chk"
 B after Tr=    -0.000000   -0.000033    0.000000
         Rot=    1.000000    0.000003   -0.000000    0.000002 Ang=   0.00 deg.
 Requested convergence on RMS density matrix=1.00D-08 within 128 cycles.
 Requested convergence on MAX density matrix=1.00D-06.
 Requested convergence on             energy=1.00D-06.
 No special actions if energy rises.
 Inv3:  Mode=1 IEnd=    68516523.
 Iteration    1 A*A^-1 deviation from unit magnitude is 3.22D-15 for   4593.
 Iteration    1 A*A^-1 deviation from orthogonality  is 2.55D-15 for   3627   2172.
 Iteration    1 A^-1*A deviation from unit magnitude is 3.11D-15 for   4370.
 Iteration    1 A^-1*A deviation from orthogonality  is 5.48D-14 for   4177   4127.
 Error on total polarization charges =  0.02602
 SCF Done:  E(RwB97XD) =  -6140.23096055     A.U. after    8 cycles
            NFock=  8  Conv=0.92D-08     -V/T= 2.0038

 **********************************************************************

            Population analysis using the SCF density.

 **********************************************************************

 Alpha  occ. eigenvalues -- -482.95274-235.72055 -89.04536 -89.04092 -62.53342
 Alpha  occ. eigenvalues --  -56.33893 -56.33892 -56.33891 -27.48762 -23.54725
 Alpha  occ. eigenvalues --  -23.54308 -23.54256 -19.35890 -19.35743 -19.35553
 Alpha  occ. eigenvalues --  -14.51751 -14.51205 -14.46906 -10.43294 -10.43207
 Alpha  occ. eigenvalues --  -10.43151 -10.37940 -10.37528 -10.37465 -10.36705
 Alpha  occ. eigenvalues --  -10.36398 -10.36273 -10.36250 -10.35967 -10.35878
 Alpha  occ. eigenvalues --  -10.35784 -10.35367 -10.35316 -10.34886 -10.34818
 Alpha  occ. eigenvalues --  -10.34720 -10.34665 -10.34122 -10.33604 -10.33514
 Alpha  occ. eigenvalues --  -10.33194 -10.33154 -10.33032 -10.32999 -10.32799
 Alpha  occ. eigenvalues --  -10.32783 -10.32738 -10.32594 -10.32517 -10.32473
 Alpha  occ. eigenvalues --   -8.70110  -8.09548  -8.09238  -6.51786  -6.51784
 Alpha  occ. eigenvalues --   -6.51780  -6.05014  -6.04699  -6.04622  -6.04304
 Alpha  occ. eigenvalues --   -6.03986  -6.03673  -3.28234  -2.62295  -2.62294
 Alpha  occ. eigenvalues --   -2.62290  -2.62289  -2.62288  -2.14136  -2.13168
 Alpha  occ. eigenvalues --   -2.13036  -1.24869  -1.24718  -1.24483  -1.09363
 Alpha  occ. eigenvalues --   -1.08623  -1.02442  -1.01581  -0.99216  -0.98078
 Alpha  occ. eigenvalues --   -0.95323  -0.94127  -0.92544  -0.91840  -0.90418
 Alpha  occ. eigenvalues --   -0.88960  -0.88354  -0.86888  -0.86611  -0.85994
 Alpha  occ. eigenvalues --   -0.83390  -0.79265  -0.76915  -0.76365  -0.76235
 Alpha  occ. eigenvalues --   -0.75576  -0.74968  -0.74415  -0.72791  -0.72229
 Alpha  occ. eigenvalues --   -0.71061  -0.70412  -0.69290  -0.67523  -0.66320
 Alpha  occ. eigenvalues --   -0.66129  -0.65994  -0.65700  -0.64995  -0.62868
 Alpha  occ. eigenvalues --   -0.62405  -0.61612  -0.60465  -0.59532  -0.59414
 Alpha  occ. eigenvalues --   -0.58656  -0.58201  -0.57944  -0.57840  -0.57743
 Alpha  occ. eigenvalues --   -0.57562  -0.57459  -0.57336  -0.56434  -0.56253
 Alpha  occ. eigenvalues --   -0.55610  -0.55176  -0.55018  -0.54838  -0.54367
 Alpha  occ. eigenvalues --   -0.53776  -0.53549  -0.53261  -0.53050  -0.52988
 Alpha  occ. eigenvalues --   -0.52770  -0.52509  -0.51950  -0.51926  -0.50947
 Alpha  occ. eigenvalues --   -0.49988  -0.49574  -0.48879  -0.48693  -0.48410
 Alpha  occ. eigenvalues --   -0.47954  -0.46349  -0.46238  -0.45913  -0.45811
 Alpha  occ. eigenvalues --   -0.44851  -0.44772  -0.44033  -0.43757  -0.42955
 Alpha  occ. eigenvalues --   -0.42359  -0.41312  -0.40788  -0.40347  -0.38924
 Alpha  occ. eigenvalues --   -0.38039  -0.37432  -0.35994  -0.35739  -0.35224
 Alpha  occ. eigenvalues --   -0.34727  -0.34487  -0.34275  -0.33381  -0.31675
 Alpha  occ. eigenvalues --   -0.30542  -0.29606  -0.29565  -0.29543
 Alpha virt. eigenvalues --   -0.02508  -0.00512  -0.00121   0.00236   0.00647
 Alpha virt. eigenvalues --    0.01209   0.01914   0.02829   0.03131   0.03463
 Alpha virt. eigenvalues --    0.03689   0.04094   0.04491   0.05581   0.05819
 Alpha virt. eigenvalues --    0.08208   0.08605   0.08738   0.08857   0.09358
 Alpha virt. eigenvalues --    0.10019   0.10631   0.12159   0.12467   0.13375
 Alpha virt. eigenvalues --    0.13504   0.13894   0.14354   0.14412   0.15198
 Alpha virt. eigenvalues --    0.15843   0.15997   0.16216   0.17147   0.17577
 Alpha virt. eigenvalues --    0.18172   0.18310   0.18730   0.18902   0.19422
 Alpha virt. eigenvalues --    0.19708   0.20136   0.20948   0.21042   0.21420
 Alpha virt. eigenvalues --    0.21650   0.21886   0.22412   0.23095   0.23245
 Alpha virt. eigenvalues --    0.23581   0.23701   0.24057   0.24594   0.25250
 Alpha virt. eigenvalues --    0.25882   0.26614   0.26868   0.27641   0.28156
 Alpha virt. eigenvalues --    0.28423   0.28818   0.29450   0.30431   0.31286
 Alpha virt. eigenvalues --    0.31865   0.32097   0.32296   0.32646   0.32922
 Alpha virt. eigenvalues --    0.33234   0.33413   0.34225   0.34820   0.34831
 Alpha virt. eigenvalues --    0.35322   0.35687   0.36119   0.36476   0.36864
 Alpha virt. eigenvalues --    0.37373   0.37543   0.37880   0.38574   0.38730
 Alpha virt. eigenvalues --    0.39147   0.39449   0.39809   0.40482   0.40928
 Alpha virt. eigenvalues --    0.41548   0.42054   0.42532   0.42693   0.43283
 Alpha virt. eigenvalues --    0.44394   0.44630   0.45784   0.46291   0.46588
 Alpha virt. eigenvalues --    0.47373   0.47499   0.47999   0.48201   0.48684
 Alpha virt. eigenvalues --    0.49252   0.49425   0.49711   0.50805   0.50998
 Alpha virt. eigenvalues --    0.51071   0.51621   0.52104   0.52225   0.52654
 Alpha virt. eigenvalues --    0.53007   0.53430   0.53700   0.53916   0.54338
 Alpha virt. eigenvalues --    0.54650   0.54794   0.55075   0.55418   0.55630
 Alpha virt. eigenvalues --    0.56452   0.56671   0.56969   0.57337   0.57969
 Alpha virt. eigenvalues --    0.58472   0.58772   0.59981   0.60265   0.60493
 Alpha virt. eigenvalues --    0.60709   0.60984   0.61106   0.61984   0.62671
 Alpha virt. eigenvalues --    0.63621   0.63810   0.64164   0.64593   0.64864
 Alpha virt. eigenvalues --    0.65163   0.65317   0.65928   0.66179   0.66456
 Alpha virt. eigenvalues --    0.66592   0.67163   0.67515   0.68572   0.69030
 Alpha virt. eigenvalues --    0.69121   0.69720   0.69869   0.70715   0.70889
 Alpha virt. eigenvalues --    0.71164   0.71429   0.71630   0.71745   0.71883
 Alpha virt. eigenvalues --    0.72191   0.72495   0.72865   0.73033   0.73209
 Alpha virt. eigenvalues --    0.73610   0.73950   0.74120   0.74500   0.75106
 Alpha virt. eigenvalues --    0.75419   0.75619   0.76064   0.76351   0.76812
 Alpha virt. eigenvalues --    0.77311   0.77499   0.77679   0.77770   0.78094
 Alpha virt. eigenvalues --    0.78190   0.79060   0.79463   0.79648   0.80221
 Alpha virt. eigenvalues --    0.80395   0.80655   0.81120   0.81378   0.82177
 Alpha virt. eigenvalues --    0.82229   0.82552   0.82732   0.83165   0.83485
 Alpha virt. eigenvalues --    0.83689   0.83765   0.84155   0.84361   0.84480
 Alpha virt. eigenvalues --    0.84612   0.85256   0.85657   0.85880   0.85973
 Alpha virt. eigenvalues --    0.86056   0.86476   0.87037   0.87340   0.87460
 Alpha virt. eigenvalues --    0.87917   0.88305   0.88743   0.89196   0.89260
 Alpha virt. eigenvalues --    0.89622   0.90061   0.90496   0.90793   0.91021
 Alpha virt. eigenvalues --    0.91245   0.92242   0.92355   0.92598   0.93381
 Alpha virt. eigenvalues --    0.93831   0.94101   0.94702   0.95287   0.95861
 Alpha virt. eigenvalues --    0.96580   0.97206   0.97389   0.98977   0.99718
 Alpha virt. eigenvalues --    0.99995   1.00923   1.01636   1.02532   1.02782
 Alpha virt. eigenvalues --    1.03161   1.04268   1.05067   1.05910   1.06496
 Alpha virt. eigenvalues --    1.07188   1.07703   1.09125   1.09356   1.10364
 Alpha virt. eigenvalues --    1.11020   1.11692   1.11980   1.12275   1.13055
 Alpha virt. eigenvalues --    1.13364   1.13459   1.14562   1.15282   1.15864
 Alpha virt. eigenvalues --    1.16354   1.16547   1.17676   1.19461   1.19892
 Alpha virt. eigenvalues --    1.20158   1.21350   1.22141   1.22667   1.23513
 Alpha virt. eigenvalues --    1.23944   1.24440   1.25049   1.25724   1.26911
 Alpha virt. eigenvalues --    1.27368   1.27957   1.28116   1.28901   1.29010
 Alpha virt. eigenvalues --    1.29511   1.29635   1.29980   1.30281   1.31128
 Alpha virt. eigenvalues --    1.31911   1.32437   1.32800   1.33068   1.34342
 Alpha virt. eigenvalues --    1.34832   1.35097   1.35690   1.35924   1.36018
 Alpha virt. eigenvalues --    1.36433   1.36567   1.37060   1.37273   1.37679
 Alpha virt. eigenvalues --    1.38603   1.39204   1.39459   1.40422   1.41317
 Alpha virt. eigenvalues --    1.42247   1.44172   1.45977   1.47449   1.48014
 Alpha virt. eigenvalues --    1.48784   1.49837   1.51045   1.52915   1.54601
 Alpha virt. eigenvalues --    1.56330   1.56844   1.57918   1.58462   1.60194
 Alpha virt. eigenvalues --    1.60984   1.61520   1.62728   1.63578   1.64722
 Alpha virt. eigenvalues --    1.64817   1.65969   1.67769   1.68391   1.68787
 Alpha virt. eigenvalues --    1.69302   1.70028   1.70307   1.70857   1.71199
 Alpha virt. eigenvalues --    1.72935   1.73120   1.73303   1.73915   1.74794
 Alpha virt. eigenvalues --    1.75122   1.75664   1.76438   1.76726   1.76734
 Alpha virt. eigenvalues --    1.77162   1.77674   1.78140   1.78376   1.79132
 Alpha virt. eigenvalues --    1.79406   1.79820   1.80176   1.80365   1.80584
 Alpha virt. eigenvalues --    1.81029   1.81454   1.81728   1.82467   1.82610
 Alpha virt. eigenvalues --    1.83673   1.83912   1.84134   1.84653   1.85654
 Alpha virt. eigenvalues --    1.86012   1.86325   1.86722   1.87280   1.87629
 Alpha virt. eigenvalues --    1.88025   1.88586   1.88809   1.89012   1.89533
 Alpha virt. eigenvalues --    1.90074   1.90684   1.91020   1.91815   1.92262
 Alpha virt. eigenvalues --    1.92636   1.93485   1.93760   1.94787   1.95021
 Alpha virt. eigenvalues --    1.96312   1.97779   1.98190   1.99061   1.99677
 Alpha virt. eigenvalues --    2.00179   2.00467   2.01061   2.01632   2.01964
 Alpha virt. eigenvalues --    2.02512   2.02715   2.02897   2.03650   2.04144
 Alpha virt. eigenvalues --    2.04890   2.05292   2.06258   2.06403   2.06602
 Alpha virt. eigenvalues --    2.06730   2.07431   2.08574   2.08907   2.09923
 Alpha virt. eigenvalues --    2.10528   2.10958   2.11850   2.12126   2.12316
 Alpha virt. eigenvalues --    2.14515   2.16465   2.17310   2.17838   2.18356
 Alpha virt. eigenvalues --    2.18565   2.19161   2.19441   2.21120   2.22082
 Alpha virt. eigenvalues --    2.22457   2.23063   2.23475   2.23666   2.24741
 Alpha virt. eigenvalues --    2.26500   2.26836   2.29258   2.29631   2.30466
 Alpha virt. eigenvalues --    2.30911   2.31104   2.31519   2.31814   2.32455
 Alpha virt. eigenvalues --    2.33631   2.34268   2.35108   2.35529   2.36175
 Alpha virt. eigenvalues --    2.36722   2.37109   2.37535   2.38241   2.38474
 Alpha virt. eigenvalues --    2.38551   2.39066   2.39310   2.39549   2.40287
 Alpha virt. eigenvalues --    2.40852   2.41741   2.42260   2.43575   2.45245
 Alpha virt. eigenvalues --    2.46178   2.46946   2.48623   2.49081   2.49380
 Alpha virt. eigenvalues --    2.52475   2.53438   2.54804   2.56184   2.57970
 Alpha virt. eigenvalues --    2.59194   2.59300   2.60148   2.62461   2.64985
 Alpha virt. eigenvalues --    2.66566   2.66799   2.67532   2.68002   2.68212
 Alpha virt. eigenvalues --    2.68339   2.68506   2.68570   2.68770   2.68859
 Alpha virt. eigenvalues --    2.69027   2.69352   2.69483   2.69550   2.70847
 Alpha virt. eigenvalues --    2.72007   2.72580   2.75860   2.76338   2.77828
 Alpha virt. eigenvalues --    2.78549   2.80060   2.80283   2.81001   2.82228
 Alpha virt. eigenvalues --    2.82598   2.82717   2.83718   2.84364   2.85057
 Alpha virt. eigenvalues --    2.86373   2.86870   2.88111   2.88861   2.90962
 Alpha virt. eigenvalues --    2.92467   2.92644   2.95540   2.98090   2.98705
 Alpha virt. eigenvalues --    2.99080   3.01282   3.03009   3.03912   3.04159
 Alpha virt. eigenvalues --    3.04757   3.07152   3.08105   3.08638   3.10225
 Alpha virt. eigenvalues --    3.10518   3.14348   3.15663   3.15915   3.19064
 Alpha virt. eigenvalues --    3.19936   3.21074   3.22029   3.22623   3.22736
 Alpha virt. eigenvalues --    3.23232   3.23873   3.28566   3.28993   3.31229
 Alpha virt. eigenvalues --    3.36829   3.38740   3.39180   3.42249   3.44365
 Alpha virt. eigenvalues --    3.45736   3.49818   3.51895   3.54034   3.57078
 Alpha virt. eigenvalues --    3.58174   3.59552   3.61042   3.61543   3.61809
 Alpha virt. eigenvalues --    3.62138   3.64034   3.69389   3.70298   3.74854
 Alpha virt. eigenvalues --    3.75189   3.76146   3.76750   3.78037   3.78850
 Alpha virt. eigenvalues --    3.80302   3.90267   3.93519   4.02176   4.05725
 Electronic spatial extent (au):  <R**2>=          23960.3212
 Charge=              0.0000 electrons
 Dipole moment (field-independent basis, Debye):
    X=             28.7838    Y=              8.4259    Z=             -0.3505  Tot=             29.9938
 Quadrupole moment (field-independent basis, Debye-Ang):
   XX=           -404.0744   YY=           -239.0167   ZZ=           -255.3098
   XY=            -38.8044   XZ=             16.4781   YZ=             21.8730
 Traceless Quadrupole moment (field-independent basis, Debye-Ang):
   XX=           -104.6074   YY=             60.4503   ZZ=             44.1571
   XY=            -38.8044   XZ=             16.4781   YZ=             21.8730
 Octapole moment (field-independent basis, Debye-Ang**2):
  XXX=            884.0531  YYY=             14.7816  ZZZ=             17.1870  XYY=             95.4176
  XXY=            342.5330  XXZ=           -130.6135  XZZ=              2.7210  YZZ=             -6.1917
  YYZ=              5.8726  XYZ=              4.4348
 Hexadecapole moment (field-independent basis, Debye-Ang**3):
 XXXX=         -22198.4840 YYYY=          -7243.7977 ZZZZ=          -5638.4463 XXXY=          -1354.3681
 XXXZ=            351.1858 YYYX=             57.5901 YYYZ=            194.3628 ZZZX=            176.5217
 ZZZY=            138.2570 XXYY=          -4374.0917 XXZZ=          -3842.4781 YYZZ=          -1954.7142
 XXYZ=            211.0501 YYXZ=            -24.1413 ZZXY=           -165.9933
 N-N= 6.625080392985D+03 E-N=-2.778695990174D+04  KE= 6.117234192261D+03
 D1PCM: PCM CHGder 1st derivatives, ID1Alg=3 FixD1E=F DoIter=F DoCFld=F I1PDM=0.
 Calling FoFJK, ICntrl=      2127 FMM=T ISym2X=0 I1Cent= 0 IOpClX= 0 NMat=1 NMatS=1 NMatT=0.
 -------------------------------------------------------------------
 Center     Atomic                   Forces (Hartrees/Bohr)
 Number     Number              X              Y              Z
 -------------------------------------------------------------------
      1       25           0.000000441   -0.000002977   -0.000018998
      2        6           0.000015294    0.000000893    0.000011070
      3        8          -0.000013308   -0.000003515   -0.000003089
      4        6          -0.000003153    0.000002235   -0.000003520
      5        8           0.000001834   -0.000000354   -0.000000429
      6        6           0.000001359   -0.000003928   -0.000003946
      7        7           0.000007489    0.000002476    0.000002507
      8        6           0.000000538   -0.000000763    0.000002516
      9        6          -0.000003007   -0.000000356   -0.000005416
     10        6           0.000001782   -0.000002784    0.000006119
     11        1           0.000001967   -0.000001688    0.000001429
     12        1           0.000000010   -0.000000113    0.000004407
     13        7          -0.000005269    0.000009908    0.000009318
     14        6          -0.000000289    0.000001868   -0.000002543
     15        6          -0.000006355   -0.000008371   -0.000001927
     16        6           0.000002714    0.000004268    0.000003779
     17        6           0.000000471    0.000003439    0.000002092
     18        6          -0.000012885    0.000029231   -0.000006651
     19        1          -0.000001052    0.000002138    0.000001137
     20        1           0.000012481   -0.000008710    0.000011308
     21        7           0.000003593    0.000000291   -0.000006702
     22        6           0.000002457    0.000004164   -0.000003490
     23        6          -0.000000224    0.000002787   -0.000004687
     24        1          -0.000000015   -0.000014902   -0.000002286
     25        6          -0.000003970    0.000002632    0.000000811
     26        1          -0.000001769   -0.000001741    0.000000118
     27        6           0.000000173   -0.000000786   -0.000000737
     28        1           0.000001678    0.000002918   -0.000003185
     29        1           0.000000183    0.000002813   -0.000000864
     30        8          -0.000000953   -0.000003466    0.000000082
     31       16          -0.000000816    0.000003428   -0.000000515
     32       16          -0.000011052   -0.000021150   -0.000027773
     33        6          -0.000000936   -0.000002153    0.000004563
     34        6          -0.000028030   -0.000071043   -0.000059184
     35        6          -0.000076003    0.000060068    0.000061364
     36        6          -0.000122692   -0.000295468   -0.000157080
     37        6           0.000049182    0.000745196    0.000515172
     38        6           0.000019863   -0.000349809   -0.000240860
     39        6           0.000113968    0.000017419   -0.000017936
     40        1           0.000002126    0.000005102   -0.000003913
     41        1          -0.000031528   -0.000011912   -0.000011317
     42        1           0.000082164   -0.000108251   -0.000039775
     43        6           0.000002928   -0.000003741    0.000000086
     44        6          -0.000004036    0.000002287   -0.000002394
     45        6           0.000000425   -0.000004459   -0.000001025
     46        6          -0.000002242   -0.000000534   -0.000000875
     47        6           0.000002686   -0.000000104   -0.000005036
     48        6           0.000000271    0.000000808   -0.000001377
     49        1           0.000000036   -0.000001761   -0.000001518
     50        1           0.000000713   -0.000001512   -0.000003231
     51        1           0.000000978   -0.000000476   -0.000002492
     52        6          -0.000000708    0.000001910   -0.000001456
     53        1           0.000001598    0.000002155   -0.000002584
     54        6           0.000000627    0.000002603   -0.000004083
     55        1          -0.000000594   -0.000000039   -0.000000159
     56        1          -0.000000836   -0.000001230    0.000001089
     57        6          -0.000002176    0.000001180    0.000003696
     58        6           0.000005435    0.000003583   -0.000000370
     59        1          -0.000000764    0.000001831    0.000002972
     60        1           0.000000116    0.000002843    0.000000950
     61       35          -0.000002923    0.000005626    0.000006843
 -------------------------------------------------------------------
 Cartesian Forces:  Max     0.000745196 RMS     0.000080760
 NDeriv=    183 NFrqRd=  0 NDerD0=      0 MskFDP=       0 MskDFD=       0 MskDF0=       0
 Re-enter D2Numr:  atom  37 IXYZ=2 step-down number 1
 Basis read from rwf:  (5D, 7F)
   749 basis functions,  1349 primitive gaussians,   800 cartesian basis functions
   174 alpha electrons      174 beta electrons
       nuclear repulsion energy      6625.1842243627 Hartrees.
 NAtoms=   61 NActive=   61 NUniq=   61 SFac= 1.00D+00 NAtFMM=   60 NAOKFM=T Big=T
 Integral buffers will be    131072 words long.
 Raffenetti 2 integral format.
 Two-electron integral symmetry is turned off.
 Nuclear repulsion after empirical dispersion term =     6625.1147864743 Hartrees.
 ------------------------------------------------------------------------------
 Polarizable Continuum Model (PCM)
 =================================
 Model                : PCM.
 Atomic radii         : UFF (Universal Force Field).
 Polarization charges : Total charges.
 Charge compensation  : None.
 Solution method      : On-the-fly selection.
 Cavity type          : Scaled VdW (van der Waals Surface) (Alpha=1.100).
 Cavity algorithm     : GePol (No added spheres)
                        Default sphere list used, NSphG=   61.
                        Lebedev-Laikov grids with approx.  5.0 points / Ang**2.
                        Smoothing algorithm: York/Karplus (Gamma=1.0000).
                        Polarization charges: spherical gaussians, with
                                              point-specific exponents (IZeta= 3).
                        Self-potential: point-specific (ISelfS= 7).
                        Self-field    : sphere-specific E.n sum rule (ISelfD= 2).
 1st derivatives      : Analytical E(r).r(x)/FMM algorithm (CHGder, D1EAlg=3).
                        Cavity 1st derivative terms included.
 Solvent              : TetraHydroFuran, Eps=   7.425700 Eps(inf)=   1.974025
 ------------------------------------------------------------------------------
 One-electron integrals computed using PRISM.
 NBasis=   749 RedAO= T EigKep=  2.25D-04  NBF=   749
 NBsUse=   749 1.00D-06 EigRej= -1.00D+00 NBFU=   749
 Initial guess from the checkpoint file:  "checkpoint.chk"
 B after Tr=    -0.000000    0.000000    0.000033
         Rot=    1.000000    0.000003    0.000003    0.000000 Ang=   0.00 deg.
 Requested convergence on RMS density matrix=1.00D-08 within 128 cycles.
 Requested convergence on MAX density matrix=1.00D-06.
 Requested convergence on             energy=1.00D-06.
 No special actions if energy rises.
 Inv3:  Mode=1 IEnd=    68516523.
 Iteration    1 A*A^-1 deviation from unit magnitude is 3.22D-15 for   2432.
 Iteration    1 A*A^-1 deviation from orthogonality  is 1.89D-15 for   2646   1153.
 Iteration    1 A^-1*A deviation from unit magnitude is 3.33D-15 for   1655.
 Iteration    1 A^-1*A deviation from orthogonality  is 7.62D-14 for   4139   4127.
 Error on total polarization charges =  0.02602
 SCF Done:  E(RwB97XD) =  -6140.23096047     A.U. after    8 cycles
            NFock=  8  Conv=0.94D-08     -V/T= 2.0038

 **********************************************************************

            Population analysis using the SCF density.

 **********************************************************************

 Alpha  occ. eigenvalues -- -482.95274-235.72055 -89.04536 -89.04090 -62.53342
 Alpha  occ. eigenvalues --  -56.33893 -56.33892 -56.33891 -27.48762 -23.54725
 Alpha  occ. eigenvalues --  -23.54308 -23.54256 -19.35890 -19.35743 -19.35553
 Alpha  occ. eigenvalues --  -14.51751 -14.51205 -14.46906 -10.43294 -10.43207
 Alpha  occ. eigenvalues --  -10.43151 -10.37940 -10.37528 -10.37465 -10.36705
 Alpha  occ. eigenvalues --  -10.36397 -10.36273 -10.36251 -10.35966 -10.35868
 Alpha  occ. eigenvalues --  -10.35784 -10.35367 -10.35316 -10.34886 -10.34818
 Alpha  occ. eigenvalues --  -10.34720 -10.34665 -10.34122 -10.33604 -10.33514
 Alpha  occ. eigenvalues --  -10.33194 -10.33153 -10.33031 -10.32999 -10.32798
 Alpha  occ. eigenvalues --  -10.32783 -10.32738 -10.32601 -10.32517 -10.32473
 Alpha  occ. eigenvalues --   -8.70110  -8.09548  -8.09236  -6.51786  -6.51784
 Alpha  occ. eigenvalues --   -6.51780  -6.05014  -6.04697  -6.04622  -6.04301
 Alpha  occ. eigenvalues --   -6.03987  -6.03670  -3.28234  -2.62295  -2.62294
 Alpha  occ. eigenvalues --   -2.62290  -2.62289  -2.62288  -2.14136  -2.13168
 Alpha  occ. eigenvalues --   -2.13036  -1.24869  -1.24718  -1.24483  -1.09363
 Alpha  occ. eigenvalues --   -1.08623  -1.02442  -1.01584  -0.99218  -0.98078
 Alpha  occ. eigenvalues --   -0.95323  -0.94129  -0.92542  -0.91840  -0.90419
 Alpha  occ. eigenvalues --   -0.88960  -0.88354  -0.86889  -0.86611  -0.85994
 Alpha  occ. eigenvalues --   -0.83387  -0.79269  -0.76915  -0.76364  -0.76235
 Alpha  occ. eigenvalues --   -0.75576  -0.74968  -0.74415  -0.72791  -0.72229
 Alpha  occ. eigenvalues --   -0.71061  -0.70411  -0.69290  -0.67526  -0.66320
 Alpha  occ. eigenvalues --   -0.66129  -0.65994  -0.65700  -0.64995  -0.62868
 Alpha  occ. eigenvalues --   -0.62405  -0.61612  -0.60464  -0.59532  -0.59414
 Alpha  occ. eigenvalues --   -0.58657  -0.58201  -0.57944  -0.57840  -0.57743
 Alpha  occ. eigenvalues --   -0.57560  -0.57459  -0.57336  -0.56433  -0.56253
 Alpha  occ. eigenvalues --   -0.55610  -0.55176  -0.55018  -0.54838  -0.54367
 Alpha  occ. eigenvalues --   -0.53777  -0.53549  -0.53262  -0.53050  -0.52988
 Alpha  occ. eigenvalues --   -0.52770  -0.52511  -0.51950  -0.51926  -0.50948
 Alpha  occ. eigenvalues --   -0.49989  -0.49572  -0.48875  -0.48695  -0.48410
 Alpha  occ. eigenvalues --   -0.47954  -0.46349  -0.46238  -0.45914  -0.45812
 Alpha  occ. eigenvalues --   -0.44849  -0.44770  -0.44035  -0.43757  -0.42954
 Alpha  occ. eigenvalues --   -0.42359  -0.41312  -0.40788  -0.40347  -0.38926
 Alpha  occ. eigenvalues --   -0.38040  -0.37431  -0.35992  -0.35739  -0.35224
 Alpha  occ. eigenvalues --   -0.34728  -0.34487  -0.34275  -0.33381  -0.31674
 Alpha  occ. eigenvalues --   -0.30543  -0.29606  -0.29565  -0.29543
 Alpha virt. eigenvalues --   -0.02508  -0.00512  -0.00122   0.00236   0.00647
 Alpha virt. eigenvalues --    0.01214   0.01911   0.02828   0.03132   0.03463
 Alpha virt. eigenvalues --    0.03689   0.04094   0.04493   0.05581   0.05819
 Alpha virt. eigenvalues --    0.08208   0.08605   0.08738   0.08855   0.09358
 Alpha virt. eigenvalues --    0.10018   0.10629   0.12159   0.12467   0.13375
 Alpha virt. eigenvalues --    0.13504   0.13894   0.14354   0.14412   0.15198
 Alpha virt. eigenvalues --    0.15844   0.15998   0.16216   0.17147   0.17576
 Alpha virt. eigenvalues --    0.18172   0.18309   0.18731   0.18902   0.19422
 Alpha virt. eigenvalues --    0.19707   0.20134   0.20951   0.21043   0.21420
 Alpha virt. eigenvalues --    0.21650   0.21886   0.22412   0.23094   0.23244
 Alpha virt. eigenvalues --    0.23580   0.23701   0.24057   0.24594   0.25251
 Alpha virt. eigenvalues --    0.25883   0.26614   0.26872   0.27641   0.28156
 Alpha virt. eigenvalues --    0.28423   0.28821   0.29450   0.30431   0.31286
 Alpha virt. eigenvalues --    0.31868   0.32096   0.32294   0.32644   0.32920
 Alpha virt. eigenvalues --    0.33234   0.33413   0.34226   0.34823   0.34831
 Alpha virt. eigenvalues --    0.35323   0.35688   0.36116   0.36476   0.36864
 Alpha virt. eigenvalues --    0.37372   0.37543   0.37879   0.38577   0.38731
 Alpha virt. eigenvalues --    0.39147   0.39445   0.39808   0.40483   0.40928
 Alpha virt. eigenvalues --    0.41551   0.42054   0.42533   0.42692   0.43283
 Alpha virt. eigenvalues --    0.44393   0.44628   0.45783   0.46289   0.46588
 Alpha virt. eigenvalues --    0.47373   0.47499   0.48000   0.48201   0.48688
 Alpha virt. eigenvalues --    0.49250   0.49425   0.49710   0.50803   0.50999
 Alpha virt. eigenvalues --    0.51073   0.51623   0.52106   0.52220   0.52655
 Alpha virt. eigenvalues --    0.53006   0.53431   0.53699   0.53914   0.54338
 Alpha virt. eigenvalues --    0.54649   0.54795   0.55072   0.55417   0.55630
 Alpha virt. eigenvalues --    0.56451   0.56671   0.56969   0.57335   0.57969
 Alpha virt. eigenvalues --    0.58474   0.58776   0.59982   0.60266   0.60502
 Alpha virt. eigenvalues --    0.60708   0.60985   0.61106   0.61984   0.62670
 Alpha virt. eigenvalues --    0.63621   0.63811   0.64164   0.64592   0.64866
 Alpha virt. eigenvalues --    0.65164   0.65317   0.65927   0.66179   0.66456
 Alpha virt. eigenvalues --    0.66591   0.67163   0.67516   0.68571   0.69031
 Alpha virt. eigenvalues --    0.69123   0.69717   0.69869   0.70716   0.70893
 Alpha virt. eigenvalues --    0.71163   0.71429   0.71631   0.71745   0.71882
 Alpha virt. eigenvalues --    0.72190   0.72495   0.72865   0.73035   0.73210
 Alpha virt. eigenvalues --    0.73610   0.73949   0.74119   0.74500   0.75107
 Alpha virt. eigenvalues --    0.75420   0.75620   0.76065   0.76351   0.76810
 Alpha virt. eigenvalues --    0.77311   0.77499   0.77678   0.77774   0.78095
 Alpha virt. eigenvalues --    0.78187   0.79065   0.79462   0.79649   0.80218
 Alpha virt. eigenvalues --    0.80395   0.80655   0.81120   0.81377   0.82180
 Alpha virt. eigenvalues --    0.82230   0.82553   0.82729   0.83165   0.83486
 Alpha virt. eigenvalues --    0.83689   0.83764   0.84154   0.84360   0.84487
 Alpha virt. eigenvalues --    0.84612   0.85257   0.85657   0.85878   0.85972
 Alpha virt. eigenvalues --    0.86057   0.86475   0.87038   0.87342   0.87460
 Alpha virt. eigenvalues --    0.87917   0.88307   0.88744   0.89196   0.89261
 Alpha virt. eigenvalues --    0.89623   0.90062   0.90497   0.90793   0.91023
 Alpha virt. eigenvalues --    0.91249   0.92242   0.92357   0.92596   0.93382
 Alpha virt. eigenvalues --    0.93832   0.94102   0.94703   0.95288   0.95860
 Alpha virt. eigenvalues --    0.96580   0.97207   0.97390   0.98976   0.99719
 Alpha virt. eigenvalues --    0.99996   1.00927   1.01637   1.02535   1.02782
 Alpha virt. eigenvalues --    1.03163   1.04268   1.05067   1.05913   1.06496
 Alpha virt. eigenvalues --    1.07188   1.07703   1.09126   1.09362   1.10364
 Alpha virt. eigenvalues --    1.11020   1.11694   1.11981   1.12274   1.13055
 Alpha virt. eigenvalues --    1.13363   1.13459   1.14562   1.15282   1.15864
 Alpha virt. eigenvalues --    1.16354   1.16547   1.17676   1.19461   1.19893
 Alpha virt. eigenvalues --    1.20158   1.21350   1.22143   1.22667   1.23513
 Alpha virt. eigenvalues --    1.23944   1.24440   1.25049   1.25724   1.26909
 Alpha virt. eigenvalues --    1.27367   1.27957   1.28115   1.28901   1.29010
 Alpha virt. eigenvalues --    1.29511   1.29634   1.29980   1.30281   1.31130
 Alpha virt. eigenvalues --    1.31909   1.32439   1.32800   1.33067   1.34345
 Alpha virt. eigenvalues --    1.34833   1.35097   1.35691   1.35924   1.36018
 Alpha virt. eigenvalues --    1.36433   1.36568   1.37060   1.37271   1.37679
 Alpha virt. eigenvalues --    1.38602   1.39204   1.39460   1.40422   1.41315
 Alpha virt. eigenvalues --    1.42247   1.44172   1.45976   1.47449   1.48014
 Alpha virt. eigenvalues --    1.48785   1.49836   1.51045   1.52916   1.54595
 Alpha virt. eigenvalues --    1.56327   1.56847   1.57917   1.58462   1.60194
 Alpha virt. eigenvalues --    1.60984   1.61520   1.62728   1.63578   1.64721
[...]
 Alpha  occ. eigenvalues --  -10.32783 -10.32744 -10.32598 -10.32517 -10.32473
 Alpha  occ. eigenvalues --   -8.70110  -8.09548  -8.09237  -6.51786  -6.51784
 Alpha  occ. eigenvalues --   -6.51780  -6.05015  -6.04697  -6.04622  -6.04302
 Alpha  occ. eigenvalues --   -6.03987  -6.03671  -3.28234  -2.62295  -2.62294
 Alpha  occ. eigenvalues --   -2.62290  -2.62289  -2.62288  -2.14136  -2.13168
 Alpha  occ. eigenvalues --   -2.13036  -1.24869  -1.24718  -1.24483  -1.09363
 Alpha  occ. eigenvalues --   -1.08623  -1.02442  -1.01583  -0.99217  -0.98078
 Alpha  occ. eigenvalues --   -0.95323  -0.94128  -0.92543  -0.91840  -0.90419
 Alpha  occ. eigenvalues --   -0.88960  -0.88354  -0.86888  -0.86611  -0.85994
 Alpha  occ. eigenvalues --   -0.83388  -0.79266  -0.76915  -0.76365  -0.76235
 Alpha  occ. eigenvalues --   -0.75576  -0.74968  -0.74415  -0.72790  -0.72229
 Alpha  occ. eigenvalues --   -0.71060  -0.70411  -0.69290  -0.67523  -0.66320
 Alpha  occ. eigenvalues --   -0.66129  -0.65994  -0.65700  -0.64995  -0.62868
 Alpha  occ. eigenvalues --   -0.62405  -0.61612  -0.60465  -0.59532  -0.59414
 Alpha  occ. eigenvalues --   -0.58655  -0.58201  -0.57944  -0.57840  -0.57743
 Alpha  occ. eigenvalues --   -0.57561  -0.57459  -0.57336  -0.56434  -0.56253
 Alpha  occ. eigenvalues --   -0.55610  -0.55175  -0.55018  -0.54838  -0.54368
 Alpha  occ. eigenvalues --   -0.53777  -0.53549  -0.53262  -0.53050  -0.52987
 Alpha  occ. eigenvalues --   -0.52770  -0.52510  -0.51950  -0.51926  -0.50947
 Alpha  occ. eigenvalues --   -0.49988  -0.49572  -0.48878  -0.48694  -0.48410
 Alpha  occ. eigenvalues --   -0.47954  -0.46349  -0.46238  -0.45913  -0.45812
 Alpha  occ. eigenvalues --   -0.44849  -0.44770  -0.44034  -0.43757  -0.42955
 Alpha  occ. eigenvalues --   -0.42359  -0.41312  -0.40788  -0.40347  -0.38925
 Alpha  occ. eigenvalues --   -0.38039  -0.37431  -0.35993  -0.35739  -0.35224
 Alpha  occ. eigenvalues --   -0.34727  -0.34487  -0.34275  -0.33381  -0.31674
 Alpha  occ. eigenvalues --   -0.30543  -0.29606  -0.29565  -0.29543
 Alpha virt. eigenvalues --   -0.02508  -0.00512  -0.00122   0.00236   0.00647
 Alpha virt. eigenvalues --    0.01211   0.01913   0.02828   0.03132   0.03463
 Alpha virt. eigenvalues --    0.03689   0.04094   0.04491   0.05581   0.05819
 Alpha virt. eigenvalues --    0.08208   0.08605   0.08738   0.08856   0.09358
 Alpha virt. eigenvalues --    0.10019   0.10630   0.12159   0.12467   0.13375
 Alpha virt. eigenvalues --    0.13504   0.13894   0.14354   0.14412   0.15198
 Alpha virt. eigenvalues --    0.15840   0.15997   0.16215   0.17147   0.17576
 Alpha virt. eigenvalues --    0.18171   0.18309   0.18730   0.18902   0.19421
 Alpha virt. eigenvalues --    0.19708   0.20134   0.20949   0.21042   0.21420
 Alpha virt. eigenvalues --    0.21650   0.21886   0.22411   0.23093   0.23244
 Alpha virt. eigenvalues --    0.23580   0.23700   0.24056   0.24594   0.25250
 Alpha virt. eigenvalues --    0.25882   0.26614   0.26870   0.27641   0.28156
 Alpha virt. eigenvalues --    0.28423   0.28819   0.29450   0.30431   0.31285
 Alpha virt. eigenvalues --    0.31866   0.32096   0.32294   0.32645   0.32920
 Alpha virt. eigenvalues --    0.33233   0.33413   0.34225   0.34821   0.34831
 Alpha virt. eigenvalues --    0.35322   0.35687   0.36117   0.36475   0.36864
 Alpha virt. eigenvalues --    0.37373   0.37543   0.37880   0.38575   0.38730
 Alpha virt. eigenvalues --    0.39147   0.39446   0.39808   0.40482   0.40928
 Alpha virt. eigenvalues --    0.41549   0.42054   0.42531   0.42692   0.43283
 Alpha virt. eigenvalues --    0.44392   0.44629   0.45784   0.46289   0.46587
 Alpha virt. eigenvalues --    0.47373   0.47498   0.47999   0.48201   0.48686
 Alpha virt. eigenvalues --    0.49251   0.49424   0.49710   0.50804   0.50998
 Alpha virt. eigenvalues --    0.51072   0.51622   0.52106   0.52224   0.52655
 Alpha virt. eigenvalues --    0.53007   0.53430   0.53699   0.53913   0.54334
 Alpha virt. eigenvalues --    0.54649   0.54793   0.55073   0.55416   0.55630
 Alpha virt. eigenvalues --    0.56451   0.56670   0.56969   0.57336   0.57969
 Alpha virt. eigenvalues --    0.58473   0.58774   0.59981   0.60264   0.60496
 Alpha virt. eigenvalues --    0.60708   0.60984   0.61106   0.61984   0.62670
 Alpha virt. eigenvalues --    0.63621   0.63810   0.64164   0.64593   0.64866
 Alpha virt. eigenvalues --    0.65164   0.65316   0.65927   0.66179   0.66456
 Alpha virt. eigenvalues --    0.66592   0.67163   0.67515   0.68571   0.69030
 Alpha virt. eigenvalues --    0.69122   0.69719   0.69868   0.70715   0.70891
 Alpha virt. eigenvalues --    0.71163   0.71429   0.71627   0.71745   0.71882
 Alpha virt. eigenvalues --    0.72190   0.72496   0.72865   0.73032   0.73208
 Alpha virt. eigenvalues --    0.73610   0.73948   0.74119   0.74495   0.75106
 Alpha virt. eigenvalues --    0.75416   0.75620   0.76065   0.76351   0.76811
 Alpha virt. eigenvalues --    0.77311   0.77499   0.77674   0.77772   0.78094
 Alpha virt. eigenvalues --    0.78188   0.79062   0.79462   0.79649   0.80219
 Alpha virt. eigenvalues --    0.80395   0.80655   0.81120   0.81377   0.82178
 Alpha virt. eigenvalues --    0.82229   0.82552   0.82729   0.83165   0.83486
 Alpha virt. eigenvalues --    0.83689   0.83765   0.84155   0.84360   0.84484
 Alpha virt. eigenvalues --    0.84612   0.85256   0.85656   0.85879   0.85972
 Alpha virt. eigenvalues --    0.86056   0.86475   0.87037   0.87340   0.87460
 Alpha virt. eigenvalues --    0.87917   0.88305   0.88744   0.89197   0.89260
 Alpha virt. eigenvalues --    0.89623   0.90062   0.90496   0.90791   0.91022
 Alpha virt. eigenvalues --    0.91246   0.92241   0.92356   0.92596   0.93381
 Alpha virt. eigenvalues --    0.93831   0.94100   0.94702   0.95287   0.95859
 Alpha virt. eigenvalues --    0.96580   0.97206   0.97389   0.98976   0.99719
 Alpha virt. eigenvalues --    0.99995   1.00922   1.01637   1.02535   1.02782
 Alpha virt. eigenvalues --    1.03161   1.04267   1.05067   1.05911   1.06497
 Alpha virt. eigenvalues --    1.07187   1.07704   1.09124   1.09360   1.10365
 Alpha virt. eigenvalues --    1.11020   1.11692   1.11980   1.12274   1.13056
 Alpha virt. eigenvalues --    1.13363   1.13459   1.14562   1.15282   1.15864
 Alpha virt. eigenvalues --    1.16354   1.16548   1.17676   1.19460   1.19893
 Alpha virt. eigenvalues --    1.20160   1.21352   1.22145   1.22668   1.23512
 Alpha virt. eigenvalues --    1.23944   1.24440   1.25048   1.25723   1.26910
 Alpha virt. eigenvalues --    1.27364   1.27958   1.28114   1.28900   1.29009
 Alpha virt. eigenvalues --    1.29509   1.29626   1.29978   1.30279   1.31131
 Alpha virt. eigenvalues --    1.31904   1.32438   1.32802   1.33065   1.34342
 Alpha virt. eigenvalues --    1.34836   1.35096   1.35687   1.35925   1.36018
 Alpha virt. eigenvalues --    1.36432   1.36569   1.37066   1.37270   1.37679
 Alpha virt. eigenvalues --    1.38601   1.39206   1.39459   1.40422   1.41315
 Alpha virt. eigenvalues --    1.42247   1.44172   1.45976   1.47448   1.48013
 Alpha virt. eigenvalues --    1.48784   1.49834   1.51049   1.52914   1.54598
 Alpha virt. eigenvalues --    1.56328   1.56846   1.57910   1.58459   1.60191
 Alpha virt. eigenvalues --    1.60985   1.61520   1.62727   1.63578   1.64718
 Alpha virt. eigenvalues --    1.64817   1.65981   1.67768   1.68391   1.68787
 Alpha virt. eigenvalues --    1.69302   1.70027   1.70307   1.70856   1.71199
 Alpha virt. eigenvalues --    1.72935   1.73120   1.73301   1.73914   1.74793
 Alpha virt. eigenvalues --    1.75118   1.75663   1.76440   1.76726   1.76738
 Alpha virt. eigenvalues --    1.77161   1.77674   1.78135   1.78375   1.79130
 Alpha virt. eigenvalues --    1.79407   1.79821   1.80175   1.80363   1.80581
 Alpha virt. eigenvalues --    1.81025   1.81453   1.81725   1.82464   1.82606
 Alpha virt. eigenvalues --    1.83673   1.83911   1.84133   1.84653   1.85653
 Alpha virt. eigenvalues --    1.86011   1.86324   1.86723   1.87278   1.87629
 Alpha virt. eigenvalues --    1.88025   1.88587   1.88801   1.89011   1.89532
 Alpha virt. eigenvalues --    1.90074   1.90682   1.91021   1.91811   1.92262
 Alpha virt. eigenvalues --    1.92635   1.93485   1.93756   1.94782   1.95021
 Alpha virt. eigenvalues --    1.96312   1.97781   1.98187   1.99061   1.99676
 Alpha virt. eigenvalues --    2.00178   2.00469   2.01058   2.01619   2.01960
 Alpha virt. eigenvalues --    2.02510   2.02714   2.02898   2.03648   2.04144
 Alpha virt. eigenvalues --    2.04889   2.05292   2.06258   2.06401   2.06604
 Alpha virt. eigenvalues --    2.06729   2.07431   2.08568   2.08903   2.09918
 Alpha virt. eigenvalues --    2.10527   2.10955   2.11847   2.12123   2.12313
 Alpha virt. eigenvalues --    2.14513   2.16467   2.17310   2.17837   2.18348
 Alpha virt. eigenvalues --    2.18565   2.19157   2.19437   2.21121   2.22082
 Alpha virt. eigenvalues --    2.22458   2.23063   2.23473   2.23665   2.24742
 Alpha virt. eigenvalues --    2.26499   2.26830   2.29256   2.29641   2.30461
 Alpha virt. eigenvalues --    2.30916   2.31101   2.31519   2.31808   2.32464
 Alpha virt. eigenvalues --    2.33625   2.34270   2.35113   2.35529   2.36174
 Alpha virt. eigenvalues --    2.36721   2.37118   2.37537   2.38239   2.38469
 Alpha virt. eigenvalues --    2.38556   2.39065   2.39311   2.39549   2.40285
 Alpha virt. eigenvalues --    2.40841   2.41740   2.42260   2.43575   2.45243
 Alpha virt. eigenvalues --    2.46178   2.46945   2.48624   2.49079   2.49374
 Alpha virt. eigenvalues --    2.52469   2.53428   2.54799   2.56182   2.57966
 Alpha virt. eigenvalues --    2.59190   2.59300   2.60147   2.62458   2.64984
 Alpha virt. eigenvalues --    2.66565   2.66799   2.67533   2.68003   2.68222
 Alpha virt. eigenvalues --    2.68337   2.68505   2.68569   2.68770   2.68858
 Alpha virt. eigenvalues --    2.69020   2.69352   2.69485   2.69550   2.70847
 Alpha virt. eigenvalues --    2.72003   2.72583   2.75841   2.76337   2.77821
 Alpha virt. eigenvalues --    2.78547   2.80060   2.80282   2.80999   2.82228
 Alpha virt. eigenvalues --    2.82593   2.82697   2.83701   2.84363   2.85058
 Alpha virt. eigenvalues --    2.86375   2.86873   2.88115   2.88863   2.90964
 Alpha virt. eigenvalues --    2.92464   2.92644   2.95540   2.98093   2.98705
 Alpha virt. eigenvalues --    2.99092   3.01261   3.02988   3.03905   3.04160
 Alpha virt. eigenvalues --    3.04755   3.07150   3.08105   3.08634   3.10222
 Alpha virt. eigenvalues --    3.10518   3.14339   3.15654   3.15915   3.19064
 Alpha virt. eigenvalues --    3.19936   3.21070   3.22028   3.22619   3.22731
 Alpha virt. eigenvalues --    3.23222   3.23872   3.28566   3.28993   3.31229
 Alpha virt. eigenvalues --    3.36828   3.38740   3.39179   3.42249   3.44365
 Alpha virt. eigenvalues --    3.45736   3.49818   3.51895   3.54034   3.57061
 Alpha virt. eigenvalues --    3.58160   3.59552   3.61042   3.61543   3.61809
 Alpha virt. eigenvalues --    3.62138   3.64034   3.69387   3.70297   3.74854
 Alpha virt. eigenvalues --    3.75189   3.76146   3.76750   3.78037   3.78850
 Alpha virt. eigenvalues --    3.80302   3.90267   3.93519   4.02176   4.05725
 Electronic spatial extent (au):  <R**2>=          23960.2433
 Charge=              0.0000 electrons
 Dipole moment (field-independent basis, Debye):
    X=             28.7834    Y=              8.4246    Z=             -0.3506  Tot=             29.9930
 Quadrupole moment (field-independent basis, Debye-Ang):
   XX=           -404.0758   YY=           -239.0159   ZZ=           -255.3097
   XY=            -38.8088   XZ=             16.4777   YZ=             21.8755
 Traceless Quadrupole moment (field-independent basis, Debye-Ang):
   XX=           -104.6086   YY=             60.4512   ZZ=             44.1574
   XY=            -38.8088   XZ=             16.4777   YZ=             21.8755
 Octapole moment (field-independent basis, Debye-Ang**2):
  XXX=            884.0516  YYY=             14.7272  ZZZ=             17.1874  XYY=             95.4204
  XXY=            342.5216  XXZ=           -130.6147  XZZ=              2.7174  YZZ=             -6.2061
  YYZ=              5.8641  XYZ=              4.4440
 Hexadecapole moment (field-independent basis, Debye-Ang**3):
 XXXX=         -22198.4373 YYYY=          -7243.6448 ZZZZ=          -5638.4493 XXXY=          -1354.3706
 XXXZ=            351.1860 YYYX=             57.3375 YYYZ=            194.4627 ZZZX=            176.5239
 ZZZY=            138.3173 XXYY=          -4374.0215 XXZZ=          -3842.5129 YYZZ=          -1954.6562
 XXYZ=            211.0925 YYXZ=            -24.1836 ZZXY=           -166.0635
 N-N= 6.625092268025D+03 E-N=-2.778698316910D+04  KE= 6.117233510881D+03
 D1PCM: PCM CHGder 1st derivatives, ID1Alg=3 FixD1E=F DoIter=F DoCFld=F I1PDM=0.
 Calling FoFJK, ICntrl=      2127 FMM=T ISym2X=0 I1Cent= 0 IOpClX= 0 NMat=1 NMatS=1 NMatT=0.
 -------------------------------------------------------------------
 Center     Atomic                   Forces (Hartrees/Bohr)
 Number     Number              X              Y              Z
 -------------------------------------------------------------------
      1       25           0.000000452   -0.000003102   -0.000018991
      2        6           0.000015206    0.000001015    0.000011095
      3        8          -0.000013263   -0.000003601   -0.000003101
      4        6          -0.000003221    0.000002239   -0.000003582
      5        8           0.000001865   -0.000000345   -0.000000400
      6        6           0.000001377   -0.000003805   -0.000004032
      7        7           0.000007392    0.000002501    0.000002856
      8        6           0.000000900   -0.000000966    0.000002709
      9        6          -0.000002681   -0.000000502   -0.000005738
     10        6           0.000001383   -0.000003026    0.000005267
     11        1           0.000001994   -0.000001683    0.000001466
     12        1          -0.000000325   -0.000000337    0.000004362
     13        7          -0.000005267    0.000009936    0.000009286
     14        6          -0.000000247    0.000001830   -0.000002504
     15        6          -0.000006359   -0.000008351   -0.000001951
     16        6           0.000002701    0.000004259    0.000003789
     17        6           0.000000474    0.000003485    0.000002088
     18        6          -0.000012898    0.000029226   -0.000006670
     19        1          -0.000001048    0.000002131    0.000001161
     20        1           0.000012481   -0.000008713    0.000011326
     21        7           0.000003700    0.000000243   -0.000006413
     22        6           0.000002552    0.000004095   -0.000003483
     23        6          -0.000000257    0.000002775   -0.000004358
     24        1           0.000000025   -0.000014914   -0.000002310
     25        6          -0.000003974    0.000002807    0.000000777
     26        1          -0.000001840   -0.000001773    0.000000060
     27        6           0.000000236   -0.000000852   -0.000000854
     28        1           0.000001706    0.000002929   -0.000003201
     29        1           0.000000187    0.000002811   -0.000000866
     30        8          -0.000000969   -0.000003516    0.000000114
     31       16           0.000000358   -0.000003095   -0.000001100
     32       16           0.000000014   -0.000001610    0.000000632
     33        6          -0.000000633    0.000000009    0.000004493
     34        6          -0.000000096   -0.000002016    0.000001368
     35        6          -0.000000815   -0.000005623    0.000005646
     36        6          -0.000000654   -0.000002573    0.000002018
     37        6          -0.000001218   -0.000003281    0.000002076
     38        6          -0.000001815   -0.000001840    0.000001835
     39        6           0.000000342    0.000004244   -0.000002841
     40        1          -0.000000743   -0.000002706    0.000002610
     41        1          -0.000000880   -0.000003847    0.000003166
     42        1          -0.000000625   -0.000003112    0.000002005
     43        6           0.000002527   -0.000006956    0.000000246
     44        6          -0.000001646   -0.000005780   -0.000004927
     45        6          -0.000018108   -0.000020098    0.000000630
     46        6           0.000341187    0.000268243   -0.000054428
     47        6           0.000024382    0.000043285   -0.000009955
     48        6           0.000007063   -0.000002031   -0.000006708
     49        1          -0.000000284   -0.000001577    0.000001045
     50        1          -0.000351039   -0.000287733    0.000058026
     51        1          -0.000000476   -0.000000731   -0.000000135
     52        6          -0.000000098    0.000003912   -0.000001427
     53        1           0.000001573    0.000002182   -0.000002629
     54        6           0.000000887    0.000002371   -0.000004344
     55        1          -0.000000559   -0.000000056   -0.000000264
     56        1          -0.000000653   -0.000001425    0.000001017
     57        6          -0.000002157    0.000001168    0.000003668
     58        6           0.000005433    0.000003580   -0.000000402
     59        1          -0.000000771    0.000001827    0.000002980
     60        1           0.000000120    0.000002847    0.000000961
     61       35          -0.000002897    0.000005624    0.000006835
 -------------------------------------------------------------------
 Cartesian Forces:  Max     0.000351039 RMS     0.000047224
 NDeriv=    183 NFrqRd=  0 NDerD0=      0 MskFDP=       0 MskDFD=       0 MskDF0=       0
 Re-enter D2Numr:  atom  50 IXYZ=1 step-up   number 1
 Basis read from rwf:  (5D, 7F)
   749 basis functions,  1349 primitive gaussians,   800 cartesian basis functions
   174 alpha electrons      174 beta electrons
       nuclear repulsion energy      6625.1716788819 Hartrees.
 NAtoms=   61 NActive=   61 NUniq=   61 SFac= 1.00D+00 NAtFMM=   60 NAOKFM=T Big=T
 Integral buffers will be    131072 words long.
 Raffenetti 2 integral format.
 Two-electron integral symmetry is turned off.
 Nuclear repulsion after empirical dispersion term =     6625.1022410108 Hartrees.
 ------------------------------------------------------------------------------
 Polarizable Continuum Model (PCM)
 =================================
 Model                : PCM.
 Atomic radii         : UFF (Universal Force Field).
 Polarization charges : Total charges.
 Charge compensation  : None.
 Solution method      : On-the-fly selection.
 Cavity type          : Scaled VdW (van der Waals Surface) (Alpha=1.100).
 Cavity algorithm     : GePol (No added spheres)
                        Default sphere list used, NSphG=   61.
                        Lebedev-Laikov grids with approx.  5.0 points / Ang**2.
                        Smoothing algorithm: York/Karplus (Gamma=1.0000).
                        Polarization charges: spherical gaussians, with
                                              point-specific exponents (IZeta= 3).
                        Self-potential: point-specific (ISelfS= 7).
                        Self-field    : sphere-specific E.n sum rule (ISelfD= 2).
 1st derivatives      : Analytical E(r).r(x)/FMM algorithm (CHGder, D1EAlg=3).
                        Cavity 1st derivative terms included.
 Solvent              : TetraHydroFuran, Eps=   7.425700 Eps(inf)=   1.974025
 ------------------------------------------------------------------------------
 One-electron integrals computed using PRISM.
 NBasis=   749 RedAO= T EigKep=  2.25D-04  NBF=   749
 NBsUse=   749 1.00D-06 EigRej= -1.00D+00 NBFU=   749
 Initial guess from the checkpoint file:  "checkpoint.chk"
 B after Tr=    -0.000005    0.000000   -0.000000
         Rot=    1.000000    0.000000   -0.000000   -0.000000 Ang=  -0.00 deg.
 Requested convergence on RMS density matrix=1.00D-08 within 128 cycles.
 Requested convergence on MAX density matrix=1.00D-06.
 Requested convergence on             energy=1.00D-06.
 No special actions if energy rises.
