 Entering Gaussian System, Link 0=g16
 Initial command:
 /home1/apps/gaussian/16rA.03/g16/l1.exe "/tmp/Gau-258400.inp" -scrdir="/tmp/"
 Entering Link 1 = /home1/apps/gaussian/16rA.03/g16/l1.exe PID=    258401.
  
 Copyright (c) 1988,1990,1992,1993,1995,1998,2003,2009,2016,
            Gaussian, Inc.  All Rights Reserved.
  
 This is part of the Gaussian(R) 16 program.  It is based on
 the Gaussian(R) 09 system (copyright 2009, Gaussian, Inc.),
 the Gaussian(R) 03 system (copyright 2003, Gaussian, Inc.),
 the Gaussian(R) 98 system (copyright 1998, Gaussian, Inc.),
 the Gaussian(R) 94 system (copyright 1995, Gaussian, Inc.),
 the Gaussian 92(TM) system (copyright 1992, Gaussian, Inc.),
 the Gaussian 90(TM) system (copyright 1990, Gaussian, Inc.),
 the Gaussian 88(TM) system (copyright 1988, Gaussian, Inc.),
 the Gaussian 86(TM) system (copyright 1986, Carnegie Mellon
 University), and the Gaussian 82(TM) system (copyright 1983,
 Carnegie Mellon University). Gaussian is a federally registered
 trademark of Gaussian, Inc.
  
 This software contains proprietary and confidential information,
 including trade secrets, belonging to Gaussian, Inc.
  
 This software is provided under written license and may be
 used, copied, transmitted, or stored only in accord with that
 written license.
  
 The following legend is applicable only to US Government
 contracts under FAR:
  
                    RESTRICTED RIGHTS LEGEND
  
 Use, reproduction and disclosure by the US Government is
 subject to restrictions as set forth in subparagraphs (a)
 and (c) of the Commercial Computer Software - Restricted
 Rights clause in FAR 52.227-19.
  
 Gaussian, Inc.
 340 Quinnipiac St., Bldg. 40, Wallingford CT 06492
  
  
 ---------------------------------------------------------------
 Warning -- This program may not be used in any manner that
 competes with the business of Gaussian, Inc. or will provide
 assistance to any competitor of Gaussian, Inc.  The licensee
 of this program is prohibited from giving any competitor of
 Gaussian, Inc. access to this program.  By using this program,
 the user acknowledges that Gaussian, Inc. is engaged in the
 business of creating and licensing software in the field of
 computational chemistry and represents and warrants to the
 licensee that it is not a competitor of Gaussian, Inc. and that
 it will not use this program in any manner prohibited above.
 ---------------------------------------------------------------
  

 Cite this work as:
 Gaussian 16, Revision A.03,
 M. J. Frisch, G. W. Trucks, H. B. Schlegel, G. E. Scuseria, 
 M. A. Robb, J. R. Cheeseman, G. Scalmani, V. Barone, 
 G. A. Petersson, H. Nakatsuji, X. Li, M. Caricato, A. V. Marenich, 
 J. Bloino, B. G. Janesko, R. Gomperts, B. Mennucci, H. P. Hratchian, 
 J. V. Ortiz, A. F. Izmaylov, J. L. Sonnenberg, D. Williams-Young, 
 F. Ding, F. Lipparini, F. Egidi, J. Goings, B. Peng, A. Petrone, 
 T. Henderson, D. Ranasinghe, V. G. Zakrzewski, J. Gao, N. Rega, 
 G. Zheng, W. Liang, M. Hada, M. Ehara, K. Toyota, R. Fukuda, 
 J. Hasegawa, M. Ishida, T. Nakajima, Y. Honda, O. Kitao, H. Nakai, 
 T. Vreven, K. Throssell, J. A. Montgomery, Jr., J. E. Peralta, 
 F. Ogliaro, M. J. Bearpark, J. J. Heyd, E. N. Brothers, K. N. Kudin, 
 V. N. Staroverov, T. A. Keith, R. Kobayashi, J. Normand, 
 K. Raghavachari, A. P. Rendell, J. C. Burant, S. S. Iyengar, 
 J. Tomasi, M. Cossi, J. M. Millam, M. Klene, C. Adamo, R. Cammi, 
 J. W. Ochterski, R. L. Martin, K. Morokuma, O. Farkas, 
 J. B. Foresman, and D. J. Fox, Gaussian, Inc., Wallingford CT, 2016.
 
 ******************************************
 Gaussian 16:  ES64L-G16RevA.03 25-Dec-2016
                17-Feb-2023 
 ******************************************
 %Chk=checkpoint.chk
 %NProcShared=12
 Will use up to   12 processors via shared memory.
 -----------------------------------------------------
 #wB97XD Gen Opt=(QST3) SCRF=(Solvent=TetraHydroFuran)
 -----------------------------------------------------
 1/5=1,18=20,26=3,27=203,38=1/1,3;
 2/9=110,12=2,17=6,18=5,40=1/2;
 3/5=7,11=2,25=1,30=1,70=2201,71=1,72=20,74=-58/1,2,3;
 4//1;
 5/5=2,38=5,53=20/2;
 6/7=2,8=2,9=2,10=2,28=1/1;
 7//1,2,3,16;
 1/5=1,18=20,26=3,27=203/3(2);
 2/9=110/2;
 99//99;
 2/9=110/2;
 3/5=7,6=1,11=2,25=1,30=1,70=2205,71=1,72=20,74=-58,82=7/1,2,3;
 4/5=5,16=3,69=1/1;
 5/5=2,38=5,53=20/2;
 7//1,2,3,16;
 1/5=1,18=20,26=3,27=203/3(-5);
 2/9=110/2;
 6/7=2,8=2,9=2,10=2,19=2,28=1/1;
 99/9=1/99;
 ------------------------------------
 Anthracene Transition State Reactant
 ------------------------------------
 Symbolic Z-matrix:
 Charge =  0 Multiplicity = 1
 Mn                   -1.0194   -0.13282  -1.30041 
 C                    -1.95084   1.09527  -2.29845 
 O                    -2.50101   1.87539  -2.92239 
 C                    -1.94096  -1.55093  -2.01671 
 O                    -2.47772  -2.45176  -2.46467 
 C                     0.20025  -0.27236  -2.6431 
 N                     0.04927  -1.53221  -0.03083 
 C                     0.07866  -3.04556   1.8282 
 C                     1.46702  -3.1228    1.77993 
 C                     1.37634  -1.67638  -0.11513 
 H                    -0.49205  -3.5931    2.57846 
 H                     2.01871  -3.71611   2.51212 
 N                    -2.37065   0.02942   0.19031 
 C                    -3.16697   0.13023   1.0198 
 C                    -4.10539   0.2658    2.09209 
 C                    -3.6202    0.43566   3.39952 
 C                    -4.52704   0.57079   4.44399 
 C                    -5.48203   0.23058   1.82486 
 H                    -2.54534   0.46071   3.58681 
 H                    -5.82775   0.09615   0.79488 
 N                     0.05018   1.50245  -0.35369 
 C                     0.08073   3.37421   1.14383 
 C                     1.47006   3.42805   1.09346 
 H                    -0.49002   4.07266   1.75603 
 C                    -0.58809  -2.23239   0.92237 
 H                    -1.67251  -2.14107   0.96102 
 C                    -0.58735   2.39419   0.42298 
 H                    -1.67305   2.32336   0.46813 
 H                    -4.16287   0.70328   5.46409 
 O                     0.94147  -0.36186  -3.51126 
 C                     3.71034   0.05692   0.59661 
 C                     6.44285   0.00195   0.07986 
 C                     2.14993  -2.41932   0.78562 
 C                     3.63318  -2.42875   0.67238 
 C                     4.33237  -3.60918   0.65808 
 C                     5.74721  -3.62943   0.48325 
 C                     6.44286  -2.47015   0.28898 
 C                     5.76733  -1.20725   0.29051 
 C                     4.35206  -1.18133   0.52939 
 H                     3.79554  -4.55679   0.74485 
 H                     6.26618  -4.58974   0.47691 
 H                     7.52231  -2.48926   0.12265 
 C                     4.35394   1.25516   0.28141 
 C                     5.76945   1.23001   0.04342 
 C                     6.44775   2.46555  -0.21061 
 C                     5.75436   3.64152  -0.25402 
 C                     4.33929   3.65908  -0.08147 
 C                     3.63726   2.50702   0.16895 
 H                     7.52743   2.44868  -0.37582 
 H                     6.27529   4.58008  -0.45221 
 H                     3.80437   4.6056   -0.18931 
 C                     2.15352   2.52607   0.2752 
 H                     2.02229   4.15802   1.68899 
 C                     1.37923   1.61496  -0.45427 
 H                     1.87683   0.94259  -1.1522 
 H                     1.87309  -1.17143  -0.94303 
 C                    -5.89955   0.53687   4.18594 
 C                    -6.37363   0.36773   2.88435 
 H                    -7.44706   0.34214   2.68994 
 H                    -6.60706   0.64379   5.01079 
 Br                   -5.87537  -0.28615  -1.89241 
 H                     7.52454  -0.01473  -0.07653 
 H                     2.66679   0.08836   0.89635 
 
 Add virtual bond connecting atoms Br61       and H20        Dist= 5.13D+00.
 -----------------------------------
 Anthracene Transition State Product
 -----------------------------------
 Symbolic Z-matrix:
 Charge =  0 Multiplicity = 1
 Mn                   -1.44286   0.16026  -2.01412 
 C                    -2.20443   1.54882  -2.90891 
 O                    -2.68366   2.42731  -3.46349 
 C                    -2.21304  -1.07612  -3.10367 
 O                    -2.69804  -1.85971  -3.78172 
 C                    -0.01408   0.23546  -3.09485 
 N                    -0.60049  -1.44099  -0.81185 
 C                    -0.82342  -3.27125   0.71581 
 C                     0.55737  -3.36677   0.85296 
 C                     0.7252   -1.5913   -0.72767 
 H                    -1.48955  -3.94449   1.25661 
 H                     1.00241  -4.09964   1.52935 
 N                     0.0775   -0.17244   2.4041 
 C                    -1.05369  -0.19765   2.64732 
 C                    -2.45976  -0.23136   2.94445 
 C                    -3.12645  -1.4621    3.01383 
 C                    -4.49389  -1.48788   3.26678 
 C                    -3.15853   0.96659   3.1448 
 H                    -2.5722   -2.38909   2.86463 
 H                    -2.62937   1.91849   3.09601 
 N                    -0.59083   1.56154  -0.58857 
 C                    -0.80429   3.1413    1.19825 
 C                     0.5769    3.20654   1.34817 
 H                    -1.46646   3.7285    1.83564 
 C                    -1.3638   -2.28301  -0.09733 
 H                    -2.44255  -2.14076  -0.17604 
 C                    -1.34964   2.291     0.24463 
 H                    -2.42913   2.16919   0.14486 
 H                    -5.01736  -2.44419   3.31559 
 O                     0.86165   0.2873   -3.83871 
 C                     2.91235  -0.04746   0.58557 
 C                     5.69235  -0.04273   0.41158 
 C                     1.36924  -2.49754   0.12252 
 C                     2.85402  -2.5063    0.21569 
 C                     3.56205  -3.67493   0.08887 
 C                     4.98786  -3.68132   0.09599 
 C                     5.69088  -2.51399   0.19056 
 C                     5.00769  -1.26191   0.32192 
 C                     3.57322  -1.26107   0.38259 
 H                     3.02896  -4.61681  -0.06081 
 H                     5.51371  -4.63251  -0.00729 
 H                     6.783    -2.51728   0.16154 
 C                     3.58071   1.17889   0.56648 
 C                     5.01522   1.18024   0.5065 
 C                     5.70587   2.43375   0.56536 
 C                     5.00976   3.60611   0.64834 
 C                     3.58394   3.60941   0.64 
 C                     2.86897   2.43926   0.58848 
 H                     6.79801   2.43509   0.53708 
 H                     5.54131   4.55882   0.69009 
 H                     3.05653   4.56629   0.63458 
 C                     1.38429   2.45343   0.49431 
 H                     1.02578   3.82526   2.12808 
 C                     0.73572   1.68987  -0.48314 
 H                     1.34033   1.15471  -1.214 
 H                     1.33286  -0.9558   -1.37019 
 C                    -5.19354  -0.29487   3.45284 
 C                    -4.52569   0.92909   3.39758 
 H                    -5.07398   1.86057   3.54798 
 H                    -6.26798  -0.31941   3.64516 
 Br                   -3.72263   0.07153  -0.71897 
 H                     1.84487  -0.05936   0.78995 
 H                     6.78538  -0.04496   0.39399 
 
 Add virtual bond connecting atoms N7         and Mn1        Dist= 4.11D+00.
 Add virtual bond connecting atoms N21        and Mn1        Dist= 4.11D+00.
 Add virtual bond connecting atoms H11        and H19        Dist= 4.70D+00.
 Add virtual bond connecting atoms H24        and H20        Dist= 4.71D+00.
 Add virtual bond connecting atoms H62        and N13        Dist= 4.53D+00.
 -----------------------------------------
 Anthracene Transition State Initial Guess
 -----------------------------------------
 Symbolic Z-matrix:
 Charge =  0 Multiplicity = 1
 Mn                   -1.02995  -0.17845  -2.19886 
 C                    -1.7469    1.01804  -3.38739 
 O                    -2.06284   1.77154  -4.1884 
 C                    -1.76912  -1.60137  -3.09765 
 O                    -2.09964  -2.50933  -3.71166 
 C                     0.36438  -0.30619  -3.27976 
 N                    -0.22664  -1.64989  -0.91237 
 C                    -0.63012  -3.38111   0.69432 
 C                     0.70162  -3.34659   1.10116 
 C                     1.06908  -1.70627  -0.59082 
 H                    -1.34707  -4.05954   1.16329 
 H                     1.04772  -3.98165   1.92114 
 N                    -2.0163    0.03006   0.15357 
 C                    -2.37484   0.15373   1.24667 
 C                    -2.85059   0.30322   2.5983 
 C                    -1.94428   0.49435   3.64706 
 C                    -2.42186   0.64334   4.94933 
 C                    -4.22611   0.25816   2.84939 
 H                    -0.87705   0.52981   3.43552 
 H                    -4.91432   0.1089    2.01474 
 N                    -0.21102   1.47579  -1.20627 
 C                    -0.61423   3.43245   0.11645 
 C                     0.72448   3.48279   0.49517 
 H                    -1.33513   4.16003   0.49172 
 C                    -1.05744  -2.50839  -0.29525 
 H                    -2.11011  -2.47272  -0.58968 
 C                    -1.04411   2.41086  -0.71822 
 H                    -2.09925   2.31311  -0.98602 
 H                    -1.72348   0.795     5.77238 
 O                     1.23659  -0.3998   -4.02953 
 C                     3.06186   0.07872   0.7502 
 C                     5.82392   0.09907   1.09643 
 C                     1.5927   -2.49034   0.44642 
 C                     3.03876  -2.42047   0.80482 
 C                     3.75419  -3.57372   1.01086 
 C                     5.15393  -3.5488    1.29098 
 C                     5.83551  -2.36731   1.31708 
 C                     5.1475   -1.12769   1.09927 
 C                     3.72556  -1.14435   0.89043 
 H                     3.25316  -4.54142   0.92278 
 H                     5.67943  -4.49368   1.4524 
 H                     6.91456  -2.34498   1.49564 
 C                     3.7407    1.29737   0.6408 
 C                     5.16304   1.30825   0.84537 
 C                     5.86545   2.55893   0.80045 
 C                     5.19537   3.71775   0.53778 
 C                     3.79226   3.70258   0.27273 
 C                     3.06505   2.53845   0.30892 
 H                     6.94606   2.56214   0.97363 
 H                     5.73257   4.66972   0.49977 
 H                     3.29942   4.63867  -0.00288 
 C                     1.61505   2.54651  -0.03493 
 H                     1.07412   4.23874   1.20417 
 C                     1.08686   1.60096  -0.92376 
 H                     1.76194   0.90782  -1.42413 
 H                     1.7452   -1.09114  -1.18634 
 C                    -3.78901   0.59836   5.20333 
 C                    -4.68861   0.40601   4.15738 
 H                    -5.75657   0.36982   4.36451 
 H                    -4.15854   0.71459   6.22883 
 Br                   -4.06377  -0.10796  -2.09677 
 H                     6.90305   0.11176   1.2806 
 H                     1.9742    0.08319   0.71366 
 

 GradGradGradGradGradGradGradGradGradGradGradGradGradGradGradGradGradGrad
 Berny optimization.
 Initialization pass.
                           ----------------------------
                           !    Initial Parameters    !
                           ! (Angstroms and Degrees)  !
 --------------------------                            --------------------------
 ! Name  Definition         TS        Reactant Product Derivative Info.         !
 --------------------------------------------------------------------------------
 ! R1    R(1,2)             1.8325    1.8363    1.819  estimate D2E/DX2         !
 ! R2    R(1,4)             1.8382    1.8367    1.819  estimate D2E/DX2         !
 ! R3    R(1,6)             1.7688    1.8193    1.7931 estimate D2E/DX2         !
 ! R4    R(1,7)             2.1132    2.1708    2.1723 estimate D2E/DX2         !
 ! R5    R(1,13)            2.5594    2.0185    4.6843 estimate D2E/DX2         !
 ! R6    R(1,21)            2.0958    2.1713    2.173  estimate D2E/DX2         !
 ! R7    R(1,61)            3.0364    4.8943    2.6235 estimate D2E/DX2         !
 ! R8    R(2,3)             1.1442    1.1404    1.1441 estimate D2E/DX2         !
 ! R9    R(4,5)             1.1448    1.1403    1.1441 estimate D2E/DX2         !
 ! R10   R(6,30)            1.154     1.145     1.1502 estimate D2E/DX2         !
 ! R11   R(7,10)            1.3362    1.3375    1.3368 estimate D2E/DX2         !
 ! R12   R(7,25)            1.3447    1.3435    1.3425 estimate D2E/DX2         !
 ! R13   R(8,9)             1.3929    1.3913    1.3909 estimate D2E/DX2         !
 ! R14   R(8,11)            1.0928    1.0901    1.0906 estimate D2E/DX2         !
 ! R15   R(8,25)            1.3869    1.3879    1.3892 estimate D2E/DX2         !
 ! R16   R(9,12)            1.0934    1.092     1.0921 estimate D2E/DX2         !
 ! R17   R(9,33)            1.3985    1.3964    1.3958 estimate D2E/DX2         !
 ! R18   R(10,33)           1.4017    1.4006    1.3996 estimate D2E/DX2         !
 ! R19   R(10,56)           1.091     1.0896    1.089  estimate D2E/DX2         !
 ! R20   R(11,19)           5.1426    4.6547    2.4854 estimate D2E/DX2         !
 ! R21   R(13,14)           1.157     1.1543    1.1573 estimate D2E/DX2         !
 ! R22   R(13,62)           8.9906    9.8989    2.3962 estimate D2E/DX2         !
 ! R23   R(14,15)           1.4407    1.4314    1.4375 estimate D2E/DX2         !
 ! R24   R(15,16)           1.3992    1.4049    1.4014 estimate D2E/DX2         !
 ! R25   R(15,18)           1.399     1.4028    1.4013 estimate D2E/DX2         !
 ! R26   R(16,17)           1.3951    1.3898    1.3909 estimate D2E/DX2         !
 ! R27   R(16,19)           1.0886    1.0913    1.0903 estimate D2E/DX2         !
 ! R28   R(17,29)           1.09      1.0912    1.0913 estimate D2E/DX2         !
 ! R29   R(17,57)           1.3913    1.397     1.3955 estimate D2E/DX2         !
 ! R30   R(18,20)           1.092     1.0947    1.0902 estimate D2E/DX2         !
 ! R31   R(18,58)           1.3952    1.3915    1.3908 estimate D2E/DX2         !
 ! R32   R(20,24)           5.6162    6.7252    2.4934 estimate D2E/DX2         !
 ! R33   R(20,61)           4.2042    2.7148    4.3773 estimate D2E/DX2         !
 ! R34   R(21,27)           1.3441    1.3435    1.3424 estimate D2E/DX2         !
 ! R35   R(21,54)           1.3342    1.3376    1.3369 estimate D2E/DX2         !
 ! R36   R(22,23)           1.3922    1.3913    1.3908 estimate D2E/DX2         !
 ! R37   R(22,24)           1.0908    1.0901    1.0907 estimate D2E/DX2         !
 ! R38   R(22,27)           1.3875    1.3879    1.3892 estimate D2E/DX2         !
 ! R39   R(23,52)           1.3967    1.3965    1.3958 estimate D2E/DX2         !
 ! R40   R(23,53)           1.0938    1.092     1.092  estimate D2E/DX2         !
 ! R41   R(25,26)           1.0937    1.0889    1.0909 estimate D2E/DX2         !
 ! R42   R(27,28)           1.093     1.0889    1.0909 estimate D2E/DX2         !
 ! R43   R(31,39)           1.3986    1.3963    1.3967 estimate D2E/DX2         !
 ! R44   R(31,43)           1.3992    1.3962    1.3968 estimate D2E/DX2         !
 ! R45   R(31,62)           3.8778    3.8738    1.0869 estimate D2E/DX2         !
 ! R46   R(31,63)           1.0883    1.0862    3.8778 estimate D2E/DX2         !
 ! R47   R(32,38)           1.4009    1.401     1.4011 estimate D2E/DX2         !
 ! R48   R(32,44)           1.4007    1.401     1.4011 estimate D2E/DX2         !
 ! R49   R(32,62)           1.0948    1.0931    3.8661 estimate D2E/DX2         !
 ! R50   R(32,63)           3.8687    3.8643    1.0932 estimate D2E/DX2         !
 ! R51   R(33,34)           1.4914    1.4876    1.4877 estimate D2E/DX2         !
 ! R52   R(34,35)           1.3727    1.372     1.3723 estimate D2E/DX2         !
 ! R53   R(34,39)           1.4517    1.4468    1.4477 estimate D2E/DX2         !
 ! R54   R(35,36)           1.4277    1.4257    1.4258 estimate D2E/DX2         !
 ! R55   R(35,40)           1.0933    1.0926    1.0926 estimate D2E/DX2         !
 ! R56   R(36,37)           1.3642    1.3659    1.366  estimate D2E/DX2         !
 ! R57   R(36,41)           1.0932    1.0916    1.0918 estimate D2E/DX2         !
 ! R58   R(37,38)           1.4344    1.4322    1.4324 estimate D2E/DX2         !
 ! R59   R(37,42)           1.094     1.0924    1.0925 estimate D2E/DX2         !
 ! R60   R(38,39)           1.4373    1.4355    1.4358 estimate D2E/DX2         !
 ! R61   R(43,44)           1.437     1.4356    1.4358 estimate D2E/DX2         !
 ! R62   R(43,48)           1.4515    1.4469    1.4476 estimate D2E/DX2         !
 ! R63   R(44,45)           1.4351    1.4322    1.4324 estimate D2E/DX2         !
 ! R64   R(45,46)           1.3641    1.3659    1.366  estimate D2E/DX2         !
 ! R65   R(45,49)           1.0944    1.0924    1.0925 estimate D2E/DX2         !
 ! R66   R(46,47)           1.428     1.4257    1.4258 estimate D2E/DX2         !
 ! R67   R(46,50)           1.0937    1.0916    1.0918 estimate D2E/DX2         !
 ! R68   R(47,48)           1.3731    1.3722    1.3723 estimate D2E/DX2         !
 ! R69   R(47,51)           1.0932    1.0926    1.0926 estimate D2E/DX2         !
 ! R70   R(48,52)           1.4902    1.4877    1.4877 estimate D2E/DX2         !
 ! R71   R(52,54)           1.4011    1.4006    1.3997 estimate D2E/DX2         !
 ! R72   R(54,55)           1.0893    1.0894    1.0891 estimate D2E/DX2         !
 ! R73   R(57,58)           1.3929    1.3955    1.3954 estimate D2E/DX2         !
 ! R74   R(57,60)           1.0962    1.092     1.0918 estimate D2E/DX2         !
 ! R75   R(58,59)           1.0885    1.0912    1.0913 estimate D2E/DX2         !
 ! A1    A(2,1,4)          91.7744   92.8602   92.6906 estimate D2E/DX2         !
 ! A2    A(2,1,6)          87.6631   89.4398   90.2928 estimate D2E/DX2         !
 ! A3    L(2,1,7,4,-1)    176.6988  181.5632  182.3854 estimate D2E/DX2         !
 ! A4    L(2,1,7,4,-2)    179.0566  182.4131  183.4865 estimate D2E/DX2         !
 ! A5    A(2,1,13)        113.0889   90.4629  130.8496 estimate D2E/DX2         !
 ! A6    A(2,1,21)         86.8293   89.035    89.6911 estimate D2E/DX2         !
 ! A7    A(2,1,61)         67.4021   56.7659   84.5395 estimate D2E/DX2         !
 ! A8    A(4,1,6)          87.8391   89.3883   90.279  estimate D2E/DX2         !
 ! A9    A(4,1,7)          84.9244   88.703    89.6949 estimate D2E/DX2         !
 ! A10   A(4,1,13)        110.9476   90.8132  130.8505 estimate D2E/DX2         !
 ! A11   L(4,1,21,2,-1)   178.6037  181.8953  182.3816 estimate D2E/DX2         !
 ! A12   L(4,1,21,2,-2)   179.9008  177.8035  176.5025 estimate D2E/DX2         !
 ! A13   A(4,1,61)         68.446    55.3068   84.5361 estimate D2E/DX2         !
 ! A14   A(6,1,7)          91.2654   92.9897   93.1816 estimate D2E/DX2         !
 ! A15   L(6,1,13,2,-1)   200.752   179.9027  221.1424 estimate D2E/DX2         !
 ! A16   L(6,1,13,2,-2)   201.4695  180.197   245.2912 estimate D2E/DX2         !
 ! A17   A(6,1,21)         92.2006   92.827    93.2059 estimate D2E/DX2         !
 ! A18   L(6,1,61,2,-1)   155.0652  146.2057  174.8323 estimate D2E/DX2         !
 ! A19   L(6,1,61,2,-2)   153.4952  133.7926  174.5395 estimate D2E/DX2         !
 ! A20   A(7,1,13)         69.1242   87.1023   45.5557 estimate D2E/DX2         !
 ! A21   A(7,1,21)         96.4733   89.3121   87.7196 estimate D2E/DX2         !
 ! A22   A(7,1,61)        112.0566  122.615    92.2245 estimate D2E/DX2         !
 ! A23   A(13,1,21)        69.5718   86.9744   45.554  estimate D2E/DX2         !
 ! A24   A(21,1,61)       110.8651  124.4079   92.2164 estimate D2E/DX2         !
 ! A25   L(1,2,3,18,-1)   186.3351  181.2299  179.5621 estimate D2E/DX2         !
 ! A26   L(1,2,3,22,-1)   180.4914  179.0518  179.5279 estimate D2E/DX2         !
 ! A27   L(1,2,3,18,-2)   175.718   178.8291  179.7608 estimate D2E/DX2         !
 ! A28   L(1,2,3,22,-2)   172.5159  178.5473  180.1171 estimate D2E/DX2         !
 ! A29   L(1,4,5,8,-1)    180.2247  178.9781  179.5473 estimate D2E/DX2         !
 ! A30   L(1,4,5,8,-2)    187.302   181.8662  179.8672 estimate D2E/DX2         !
 ! A31   L(1,6,30,10,-1)  182.2342  181.4747  182.6714 estimate D2E/DX2         !
 ! A32   L(1,6,30,10,-2)  177.9766  178.99    178.0594 estimate D2E/DX2         !
 ! A33   A(1,7,10)        122.991   121.4044  120.1501 estimate D2E/DX2         !
 ! A34   A(1,7,25)        119.2815  121.1552  122.4403 estimate D2E/DX2         !
 ! A35   A(10,7,25)       117.5     117.3369  117.3751 estimate D2E/DX2         !
 ! A36   A(9,8,11)        121.1506  121.2244  121.0019 estimate D2E/DX2         !
 ! A37   A(9,8,25)        119.1689  119.2911  119.5213 estimate D2E/DX2         !
 ! A38   A(11,8,25)       119.6507  119.4687  119.4588 estimate D2E/DX2         !
 ! A39   A(8,9,12)        120.4837  120.7321  120.7784 estimate D2E/DX2         !
 ! A40   A(8,9,33)        119.1829  118.9955  118.8861 estimate D2E/DX2         !
 ! A41   A(12,9,33)       120.3334  120.2701  120.331  estimate D2E/DX2         !
 ! A42   A(7,10,33)       124.3266  124.3771  124.5675 estimate D2E/DX2         !
 ! A43   A(7,10,56)       116.4762  116.7619  116.7806 estimate D2E/DX2         !
 ! A44   A(33,10,56)      119.1969  118.8603  118.6518 estimate D2E/DX2         !
 ! A45   A(8,11,19)        64.8887   86.7094  101.5699 estimate D2E/DX2         !
 ! A46   L(1,13,14,8,-1)  179.5087  181.4217  143.4264 estimate D2E/DX2         !
 ! A47   L(1,13,14,8,-2)  175.2134  180.9146  272.8095 estimate D2E/DX2         !
 ! A48   A(14,13,62)      100.8373  135.1856  149.7131 estimate D2E/DX2         !
 ! A49   L(13,14,15,11,-1)  180.0966  178.6485  179.8378 estimate D2E/DX2       !
 ! A50   L(13,14,15,1,-1)  181.2126  179.3423  179.8053 estimate D2E/DX2        !
 ! A51   L(13,14,15,11,-2)  181.2587  177.655  180.1544 estimate D2E/DX2        !
 ! A52   L(13,14,15,1,-2)  174.5558  323.0409  179.8888 estimate D2E/DX2        !
 ! A53   A(14,15,16)      120.2299  118.8297  119.745  estimate D2E/DX2         !
 ! A54   A(14,15,18)      119.323   119.8879  119.8197 estimate D2E/DX2         !
 ! A55   A(16,15,18)      120.4469  121.2822  120.4296 estimate D2E/DX2         !
 ! A56   A(15,16,17)      119.5064  119.0657  119.537  estimate D2E/DX2         !
 ! A57   A(15,16,19)      119.5922  120.1746  119.8713 estimate D2E/DX2         !
 ! A58   A(17,16,19)      120.9006  120.7597  120.591  estimate D2E/DX2         !
 ! A59   A(16,17,29)      120.0245  119.7748  119.7337 estimate D2E/DX2         !
 ! A60   A(16,17,57)      120.2232  119.9927  120.0872 estimate D2E/DX2         !
 ! A61   A(29,17,57)      119.7523  120.2326  120.1787 estimate D2E/DX2         !
 ! A62   A(15,18,20)      119.1344  119.4873  119.8693 estimate D2E/DX2         !
 ! A63   A(15,18,58)      119.3921  118.7694  119.546  estimate D2E/DX2         !
 ! A64   A(20,18,58)      121.4734  121.7433  120.5838 estimate D2E/DX2         !
 ! A65   A(11,19,16)       88.1196  112.1661  147.3575 estimate D2E/DX2         !
 ! A66   A(18,20,24)       72.965    62.7598  151.9875 estimate D2E/DX2         !
 ! A67   A(18,20,61)      128.8302  162.5838   63.2149 estimate D2E/DX2         !
 ! A68   A(1,21,27)       118.6132  121.2128  122.409  estimate D2E/DX2         !
 ! A69   A(1,21,54)       123.6733  121.3339  120.1792 estimate D2E/DX2         !
 ! A70   A(27,21,54)      117.4395  117.3326  117.3719 estimate D2E/DX2         !
 ! A71   A(23,22,24)      121.1842  121.2226  120.9754 estimate D2E/DX2         !
 ! A72   A(23,22,27)      119.223   119.2873  119.5087 estimate D2E/DX2         !
 ! A73   A(24,22,27)      119.558   119.4755  119.497  estimate D2E/DX2         !
 ! A74   A(22,23,52)      119.0556  119.0084  118.8945 estimate D2E/DX2         !
 ! A75   A(22,23,53)      120.5782  120.7383  120.7806 estimate D2E/DX2         !
 ! A76   A(52,23,53)      120.3641  120.2517  120.3201 estimate D2E/DX2         !
 ! A77   A(20,24,22)       91.9106   87.5038  100.821  estimate D2E/DX2         !
 ! A78   A(7,25,8)        122.6055  122.7164  122.4501 estimate D2E/DX2         !
 ! A79   A(7,25,26)       116.7641  116.9941  116.2352 estimate D2E/DX2         !
 ! A80   A(8,25,26)       120.6093  120.2893  121.3081 estimate D2E/DX2         !
 ! A81   A(21,27,22)      122.5898  122.7187  122.4637 estimate D2E/DX2         !
 ! A82   A(21,27,28)      116.5626  116.996   116.2248 estimate D2E/DX2         !
 ! A83   A(22,27,28)      120.8206  120.2851  121.3045 estimate D2E/DX2         !
 ! A84   A(39,31,43)      122.6322  122.5723  122.3093 estimate D2E/DX2         !
 ! A85   A(39,31,62)       61.5537   61.4914  118.8492 estimate D2E/DX2         !
 ! A86   A(39,31,63)      118.7661  118.7182   61.3666 estimate D2E/DX2         !
 ! A87   A(43,31,62)       61.4913   61.4953  118.8238 estimate D2E/DX2         !
 ! A88   A(43,31,63)      118.5983  118.7067   61.3697 estimate D2E/DX2         !
 ! A89   A(38,32,44)      121.905   121.9166  121.8486 estimate D2E/DX2         !
 ! A90   A(38,32,62)      119.0613  119.0443   61.0678 estimate D2E/DX2         !
 ! A91   A(38,32,63)       61.0614   61.0778  119.0633 estimate D2E/DX2         !
 ! A92   A(44,32,62)      119.027   119.0318   61.0645 estimate D2E/DX2         !
 ! A93   A(44,32,63)       61.0726   61.068   119.0833 estimate D2E/DX2         !
 ! A94   A(9,33,10)       116.8007  117.0675  116.9662 estimate D2E/DX2         !
 ! A95   A(9,33,34)       122.2726  122.5908  122.9607 estimate D2E/DX2         !
 ! A96   A(10,33,34)      120.9174  120.3387  120.073  estimate D2E/DX2         !
 ! A97   A(33,34,35)      120.1347  120.9546  120.9417 estimate D2E/DX2         !
 ! A98   A(33,34,39)      120.9336  119.8331  119.8661 estimate D2E/DX2         !
 ! A99   A(35,34,39)      118.8879  119.1791  119.1341 estimate D2E/DX2         !
 ! A100  A(34,35,36)      121.7194  121.2786  121.2856 estimate D2E/DX2         !
 ! A101  A(34,35,40)      119.5185  119.6689  119.674  estimate D2E/DX2         !
 ! A102  A(36,35,40)      118.7221  119.0134  118.9947 estimate D2E/DX2         !
 ! A103  A(35,36,37)      120.5763  120.7171  120.7422 estimate D2E/DX2         !
 ! A104  A(35,36,41)      119.0243  119.0123  119.0173 estimate D2E/DX2         !
 ! A105  A(37,36,41)      120.3697  120.2457  120.2125 estimate D2E/DX2         !
 ! A106  A(36,37,38)      120.3917  120.5328  120.5232 estimate D2E/DX2         !
 ! A107  A(36,37,42)      120.9038  120.6705  120.6689 estimate D2E/DX2         !
 ! A108  A(38,37,42)      118.7027  118.7953  118.8069 estimate D2E/DX2         !
 ! A109  A(32,38,37)      121.702   122.24    122.2362 estimate D2E/DX2         !
 ! A110  A(32,38,39)      119.1798  118.9991  119.0121 estimate D2E/DX2         !
 ! A111  A(37,38,39)      119.1159  118.758   118.7457 estimate D2E/DX2         !
 ! A112  A(31,39,34)      122.5681  122.1059  121.9443 estimate D2E/DX2         !
 ! A113  A(31,39,38)      118.2885  118.4984  118.6455 estimate D2E/DX2         !
 ! A114  A(34,39,38)      119.1302  119.389   119.4053 estimate D2E/DX2         !
 ! A115  A(31,43,44)      118.4019  118.4837  118.6513 estimate D2E/DX2         !
 ! A116  A(31,43,48)      122.4606  122.1247  121.9344 estimate D2E/DX2         !
 ! A117  A(44,43,48)      119.13    119.3848  119.4097 estimate D2E/DX2         !
 ! A118  A(32,44,43)      119.0774  119.0099  119.0034 estimate D2E/DX2         !
 ! A119  A(32,44,45)      121.8034  122.2187  122.2494 estimate D2E/DX2         !
 ! A120  A(43,44,45)      119.1161  118.7686  118.7409 estimate D2E/DX2         !
 ! A121  A(44,45,46)      120.3925  120.528   120.5213 estimate D2E/DX2         !
 ! A122  A(44,45,49)      118.7422  118.7904  118.817  estimate D2E/DX2         !
 ! A123  A(46,45,49)      120.8639  120.6802  120.6609 estimate D2E/DX2         !
 ! A124  A(45,46,47)      120.6215  120.7068  120.7457 estimate D2E/DX2         !
 ! A125  A(45,46,50)      120.3185  120.2507  120.209  estimate D2E/DX2         !
 ! A126  A(47,46,50)      119.038   119.0168  119.0169 estimate D2E/DX2         !
 ! A127  A(46,47,48)      121.6345  121.3037  121.2822 estimate D2E/DX2         !
 ! A128  A(46,47,51)      118.7285  118.9924  118.9961 estimate D2E/DX2         !
 ! A129  A(48,47,51)      119.5941  119.663   119.6765 estimate D2E/DX2         !
 ! A130  A(43,48,47)      118.9741  119.1567  119.1323 estimate D2E/DX2         !
 ! A131  A(43,48,52)      120.6828  119.9705  119.8668 estimate D2E/DX2         !
 ! A132  A(47,48,52)      120.3083  120.8346  120.9443 estimate D2E/DX2         !
 ! A133  A(23,52,48)      122.4435  122.5636  122.9353 estimate D2E/DX2         !
 ! A134  A(23,52,54)      116.9235  117.0493  116.97   estimate D2E/DX2         !
 ! A135  A(48,52,54)      120.6323  120.3865  120.0947 estimate D2E/DX2         !
 ! A136  A(21,54,52)      124.3588  124.391   124.5567 estimate D2E/DX2         !
 ! A137  A(21,54,55)      116.4826  116.7506  116.7927 estimate D2E/DX2         !
 ! A138  A(52,54,55)      119.1575  118.8579  118.6503 estimate D2E/DX2         !
 ! A139  A(17,57,58)      120.1333  120.597   120.3067 estimate D2E/DX2         !
 ! A140  A(17,57,60)      119.9074  119.6479  119.8457 estimate D2E/DX2         !
 ! A141  A(58,57,60)      119.9593  119.7552  119.8473 estimate D2E/DX2         !
 ! A142  A(18,58,57)      120.2979  120.2931  120.0864 estimate D2E/DX2         !
 ! A143  A(18,58,59)      120.0079  119.4952  119.7296 estimate D2E/DX2         !
 ! A144  A(57,58,59)      119.6942  120.2117  120.1834 estimate D2E/DX2         !
 ! A145  A(13,62,31)        0.661     8.5014  148.3802 estimate D2E/DX2         !
 ! D1    D(4,1,7,10)      128.7652  118.0929  116.3527 estimate D2E/DX2         !
 ! D2    D(4,1,7,25)      -56.8573  -65.7047  -65.8409 estimate D2E/DX2         !
 ! D3    D(6,1,7,10)       41.0475   28.7733   26.0902 estimate D2E/DX2         !
 ! D4    D(6,1,7,25)     -144.5749 -155.0243 -156.1034 estimate D2E/DX2         !
 ! D5    D(13,1,7,10)    -116.5257 -151.027   -86.5137 estimate D2E/DX2         !
 ! D6    D(13,1,7,25)      57.8519   25.1754   91.2927 estimate D2E/DX2         !
 ! D7    D(21,1,7,10)     -51.3114  -64.0218  -66.9962 estimate D2E/DX2         !
 ! D8    D(21,1,7,25)     123.0662  112.1806  110.8102 estimate D2E/DX2         !
 ! D9    D(61,1,7,10)    -166.9525  164.4312 -159.1273 estimate D2E/DX2         !
 ! D10   D(61,1,7,25)       7.4251  -19.3665   18.679  estimate D2E/DX2         !
 ! D11   D(2,1,15,16)    -124.6368 -132.5668  117.3152 estimate D2E/DX2         !
 ! D12   D(2,1,15,18)      54.7041   46.8712   -7.0382 estimate D2E/DX2         !
 ! D13   D(4,1,15,16)     132.5704  134.5698    8.9434 estimate D2E/DX2         !
 ! D14   D(4,1,15,18)     -48.0887  -45.9921 -115.41   estimate D2E/DX2         !
 ! D15   D(7,1,15,16)      58.1183   45.9148  -62.8995 estimate D2E/DX2         !
 ! D16   D(7,1,15,18)    -122.5409 -134.6472  172.7471 estimate D2E/DX2         !
 ! D17   D(21,1,15,16)    -48.8227  -43.5417 -170.8879 estimate D2E/DX2         !
 ! D18   D(21,1,15,18)    130.5181  135.8964   64.7587 estimate D2E/DX2         !
 ! D19   D(2,1,21,27)      60.2663   64.9775   66.0092 estimate D2E/DX2         !
 ! D20   D(2,1,21,54)    -125.9088 -119.1227 -116.3481 estimate D2E/DX2         !
 ! D21   D(6,1,21,27)     147.8021  154.3689  156.2852 estimate D2E/DX2         !
 ! D22   D(6,1,21,54)     -38.3731  -29.7313  -26.0721 estimate D2E/DX2         !
 ! D23   D(7,1,21,27)    -120.6736 -112.6715 -110.6537 estimate D2E/DX2         !
 ! D24   D(7,1,21,54)      53.1512   63.2282   66.989  estimate D2E/DX2         !
 ! D25   D(13,1,21,27)    -55.8216  -25.5371  -91.1356 estimate D2E/DX2         !
 ! D26   D(13,1,21,54)    118.0032  150.3627   86.5071 estimate D2E/DX2         !
 ! D27   D(61,1,21,27)     -4.0772   17.5031  -18.5141 estimate D2E/DX2         !
 ! D28   D(61,1,21,54)    169.7477 -166.5972  159.1286 estimate D2E/DX2         !
 ! D29   D(1,7,10,33)     167.0076  170.9989  173.1231 estimate D2E/DX2         !
 ! D30   D(1,7,10,56)     -12.8097   -8.6878   -6.7473 estimate D2E/DX2         !
 ! D31   D(25,7,10,33)     -7.464    -5.3429   -4.7922 estimate D2E/DX2         !
 ! D32   D(25,7,10,56)    172.7187  174.9705  175.3374 estimate D2E/DX2         !
 ! D33   D(1,7,25,8)     -171.2035 -174.1697 -177.2166 estimate D2E/DX2         !
 ! D34   D(1,7,25,26)       7.1315    5.9781    1.8568 estimate D2E/DX2         !
 ! D35   D(10,7,25,8)       3.4809    2.1817    0.6474 estimate D2E/DX2         !
 ! D36   D(10,7,25,26)   -178.1842 -177.6705  179.7208 estimate D2E/DX2         !
 ! D37   D(11,8,9,12)      -1.7539   -1.589    -1.8553 estimate D2E/DX2         !
 ! D38   D(11,8,9,33)     178.1554  178.9627  178.9172 estimate D2E/DX2         !
 ! D39   D(25,8,9,12)     176.2522  176.9571  176.5923 estimate D2E/DX2         !
 ! D40   D(25,8,9,33)      -3.8386   -2.4911   -2.6352 estimate D2E/DX2         !
 ! D41   D(9,8,11,19)      88.5935  128.0158  111.5414 estimate D2E/DX2         !
 ! D42   D(25,8,11,19)    -89.4031  -50.5278  -66.9071 estimate D2E/DX2         !
 ! D43   D(9,8,25,7)        2.0269    1.6357    2.9883 estimate D2E/DX2         !
 ! D44   D(9,8,25,26)    -176.2457 -178.5168 -176.0389 estimate D2E/DX2         !
 ! D45   D(11,8,25,7)    -179.9367 -179.7923 -178.5399 estimate D2E/DX2         !
 ! D46   D(11,8,25,26)      1.7907    0.0552    2.4328 estimate D2E/DX2         !
 ! D47   D(8,9,33,10)       0.3035   -0.3199   -1.0696 estimate D2E/DX2         !
 ! D48   D(8,9,33,34)    -178.5969  179.0584  179.0325 estimate D2E/DX2         !
 ! D49   D(12,9,33,10)   -179.7871 -179.7707  179.6995 estimate D2E/DX2         !
 ! D50   D(12,9,33,34)      1.3125   -0.3925   -0.1985 estimate D2E/DX2         !
 ! D51   D(7,10,33,9)       5.5947    4.4392    5.015  estimate D2E/DX2         !
 ! D52   D(7,10,33,34)   -175.489  -174.9538 -175.0839 estimate D2E/DX2         !
 ! D53   D(56,10,33,9)   -174.5927 -175.8802 -175.1168 estimate D2E/DX2         !
 ! D54   D(56,10,33,34)     4.3236    4.7267    4.7842 estimate D2E/DX2         !
 ! D55   D(8,11,19,16)    144.0797  117.7639   53.3578 estimate D2E/DX2         !
 ! D56   D(62,13,15,16)     3.7906    0.4233   89.7844 estimate D2E/DX2         !
 ! D57   D(62,13,15,18)  -176.3171 -179.8178  -89.249  estimate D2E/DX2         !
 ! D58   D(14,13,62,31)  -170.8344    1.3918 -178.9573 estimate D2E/DX2         !
 ! D59   D(14,15,16,17)   179.7151  179.857  -178.3155 estimate D2E/DX2         !
 ! D60   D(14,15,16,19)     0.0222   -0.1263    1.3773 estimate D2E/DX2         !
 ! D61   D(18,15,16,17)    -0.1439    0.0027    0.8132 estimate D2E/DX2         !
 ! D62   D(18,15,16,19)  -179.8367 -179.9806 -179.494  estimate D2E/DX2         !
 ! D63   D(14,15,18,20)     0.0831    0.1848   -1.3207 estimate D2E/DX2         !
 ! D64   D(14,15,18,58)  -179.8455 -179.8524  178.3373 estimate D2E/DX2         !
 ! D65   D(16,15,18,20)   179.9433 -179.9624  179.5513 estimate D2E/DX2         !
 ! D66   D(16,15,18,58)     0.0147    0.0003   -0.7907 estimate D2E/DX2         !
 ! D67   D(15,16,17,29)  -179.8573  179.998   179.6371 estimate D2E/DX2         !
 ! D68   D(15,16,17,57)     0.1812   -0.0077   -0.1502 estimate D2E/DX2         !
 ! D69   D(19,16,17,29)    -0.1685   -0.0189   -0.0534 estimate D2E/DX2         !
 ! D70   D(19,16,17,57)   179.8699  179.9755 -179.8408 estimate D2E/DX2         !
 ! D71   D(15,16,19,11)   -55.1944  -64.5372  -76.5178 estimate D2E/DX2         !
 ! D72   D(17,16,19,11)   125.1172  115.4798  103.1717 estimate D2E/DX2         !
 ! D73   D(16,17,57,58)    -0.0896    0.0098   -0.5324 estimate D2E/DX2         !
 ! D74   D(16,17,57,60)   179.9121 -179.988   179.6298 estimate D2E/DX2         !
 ! D75   D(29,17,57,58)   179.9488 -179.9959  179.6812 estimate D2E/DX2         !
 ! D76   D(29,17,57,60)    -0.0495    0.0063   -0.1566 estimate D2E/DX2         !
 ! D77   D(15,18,20,24)   -48.2711  -39.6752   72.2844 estimate D2E/DX2         !
 ! D78   D(15,18,20,61)    -4.8088    2.2233   79.8547 estimate D2E/DX2         !
 ! D79   D(58,18,20,24)   131.656   140.3632 -107.37   estimate D2E/DX2         !
 ! D80   D(58,18,20,61)   175.1182 -177.7383  -99.7997 estimate D2E/DX2         !
 ! D81   D(15,18,58,57)     0.0784    0.0017    0.1052 estimate D2E/DX2         !
 ! D82   D(15,18,58,59)  -179.8294  179.9964 -179.6257 estimate D2E/DX2         !
 ! D83   D(20,18,58,57)  -179.8485  179.9635  179.7607 estimate D2E/DX2         !
 ! D84   D(20,18,58,59)     0.2437   -0.0418    0.0298 estimate D2E/DX2         !
 ! D85   D(18,20,24,22)    86.8443  118.348   -46.9348 estimate D2E/DX2         !
 ! D86   D(1,21,27,22)    170.3533  173.7347  176.964  estimate D2E/DX2         !
 ! D87   D(1,21,27,28)     -7.7684   -6.4186   -2.0847 estimate D2E/DX2         !
 ! D88   D(54,21,27,22)    -3.8576   -2.3232   -0.7414 estimate D2E/DX2         !
 ! D89   D(54,21,27,28)   178.0207  177.5235 -179.79   estimate D2E/DX2         !
 ! D90   D(1,21,54,52)   -166.3174 -170.7064 -172.9049 estimate D2E/DX2         !
 ! D91   D(1,21,54,55)     13.3021    9.0522    6.903  estimate D2E/DX2         !
 ! D92   D(27,21,54,52)     7.5747    5.3464    4.8541 estimate D2E/DX2         !
 ! D93   D(27,21,54,55)  -172.8058 -174.895  -175.338  estimate D2E/DX2         !
 ! D94   D(24,22,23,52)  -178.622  -178.8661 -178.9497 estimate D2E/DX2         !
 ! D95   D(24,22,23,53)     1.8925    1.5972    1.8437 estimate D2E/DX2         !
 ! D96   D(27,22,23,52)     3.5346    2.5283    2.6426 estimate D2E/DX2         !
 ! D97   D(27,22,23,53)  -175.9508 -177.0084 -176.5639 estimate D2E/DX2         !
 ! D98   D(23,22,24,20)  -129.8491 -167.1236 -114.2662 estimate D2E/DX2         !
 ! D99   D(27,22,24,20)    47.9871   11.4793   64.1416 estimate D2E/DX2         !
 ! D100  D(23,22,27,21)    -1.5495   -1.5128   -2.9271 estimate D2E/DX2         !
 ! D101  D(23,22,27,28)   176.4942  178.6454  176.0741 estimate D2E/DX2         !
 ! D102  D(24,22,27,21)  -179.4284  179.8569  178.6415 estimate D2E/DX2         !
 ! D103  D(24,22,27,28)    -1.3847    0.0151   -2.3573 estimate D2E/DX2         !
 ! D104  D(22,23,52,48)   179.4473 -179.5503 -179.0167 estimate D2E/DX2         !
 ! D105  D(22,23,52,54)    -0.2482    0.1582    1.0323 estimate D2E/DX2         !
 ! D106  D(53,23,52,48)    -1.0662   -0.0113    0.1935 estimate D2E/DX2         !
 ! D107  D(53,23,52,54)   179.2384  179.6972 -179.7574 estimate D2E/DX2         !
 ! D108  D(43,31,39,34)  -170.6093 -171.0588 -171.1073 estimate D2E/DX2         !
 ! D109  D(43,31,39,38)     8.0572    7.9929    8.0804 estimate D2E/DX2         !
 ! D110  D(62,31,39,34)  -178.0989 -178.5638   10.4416 estimate D2E/DX2         !
 ! D111  D(62,31,39,38)     0.5676    0.4878 -170.3707 estimate D2E/DX2         !
 ! D112  D(63,31,39,34)     8.7057    8.319  -178.7139 estimate D2E/DX2         !
 ! D113  D(63,31,39,38)  -172.6278 -172.6293    0.4738 estimate D2E/DX2         !
 ! D114  D(39,31,43,44)    -7.8458   -8.0368   -8.1047 estimate D2E/DX2         !
 ! D115  D(39,31,43,48)   171.1463  171.0122  171.1092 estimate D2E/DX2         !
 ! D116  D(62,31,43,44)    -0.3517   -0.532   170.3468 estimate D2E/DX2         !
 ! D117  D(62,31,43,48)   178.6404  178.517   -10.4393 estimate D2E/DX2         !
 ! D118  D(63,31,43,44)   172.8382  172.5853   -0.4984 estimate D2E/DX2         !
 ! D119  D(63,31,43,48)    -8.1697   -8.3657  178.7155 estimate D2E/DX2         !
 ! D120  D(39,31,62,13)   -84.9341   86.7475   89.3766 estimate D2E/DX2         !
 ! D121  D(43,31,62,13)   102.242   -86.0571  -89.1292 estimate D2E/DX2         !
 ! D122  D(44,32,38,37)   178.0931  178.0761  178.3863 estimate D2E/DX2         !
 ! D123  D(44,32,38,39)    -2.4698   -2.5547   -2.5202 estimate D2E/DX2         !
 ! D124  D(62,32,38,37)    -0.9534   -0.9271 -175.4289 estimate D2E/DX2         !
 ! D125  D(62,32,38,39)   178.4837  178.4421    3.6647 estimate D2E/DX2         !
 ! D126  D(63,32,38,37)  -176.3478 -176.3626   -0.8107 estimate D2E/DX2         !
 ! D127  D(63,32,38,39)     3.0894    3.0066  178.2828 estimate D2E/DX2         !
 ! D128  D(38,32,44,43)     2.689     2.5098    2.496  estimate D2E/DX2         !
 ! D129  D(38,32,44,45)  -177.9591 -178.1172 -178.4259 estimate D2E/DX2         !
 ! D130  D(62,32,44,43)  -178.2642 -178.4869   -3.689  estimate D2E/DX2         !
 ! D131  D(62,32,44,45)     1.0876    0.8861  175.3891 estimate D2E/DX2         !
 ! D132  D(63,32,44,43)    -2.8696   -3.052  -178.3071 estimate D2E/DX2         !
 ! D133  D(63,32,44,45)   176.4823  176.3211    0.771  estimate D2E/DX2         !
 ! D134  D(9,33,34,35)     44.6029   51.0888   50.1007 estimate D2E/DX2         !
 ! D135  D(9,33,34,39)   -137.832  -131.0271 -132.6936 estimate D2E/DX2         !
 ! D136  D(10,33,34,35)  -134.2531 -129.5527 -129.7941 estimate D2E/DX2         !
 ! D137  D(10,33,34,39)    43.3121   48.3314   47.4115 estimate D2E/DX2         !
 ! D138  D(33,34,35,36)   176.8943  176.8502  176.1599 estimate D2E/DX2         !
 ! D139  D(33,34,35,40)    -0.775    -0.8529   -1.356  estimate D2E/DX2         !
 ! D140  D(39,34,35,36)    -0.7204   -1.0475   -1.0659 estimate D2E/DX2         !
 ! D141  D(39,34,35,40)  -178.3897 -178.7507 -178.5818 estimate D2E/DX2         !
 ! D142  D(33,34,39,31)     5.1674    5.0696    6.0886 estimate D2E/DX2         !
 ! D143  D(33,34,39,38)  -173.4884 -173.9738 -173.0931 estimate D2E/DX2         !
 ! D144  D(35,34,39,31)  -177.2377 -177.0086 -176.6552 estimate D2E/DX2         !
 ! D145  D(35,34,39,38)     4.1066    3.9479    4.1631 estimate D2E/DX2         !
 ! D146  D(34,35,36,37)    -2.2572   -1.7539   -1.9335 estimate D2E/DX2         !
 ! D147  D(34,35,36,41)   179.7186 -179.946   179.9868 estimate D2E/DX2         !
 ! D148  D(40,35,36,37)   175.4301  175.9639  175.5989 estimate D2E/DX2         !
 ! D149  D(40,35,36,41)    -2.5941   -2.2281   -2.4808 estimate D2E/DX2         !
 ! D150  D(35,36,37,38)     1.7164    1.5673    1.7411 estimate D2E/DX2         !
 ! D151  D(35,36,37,42)  -177.7899 -177.994  -177.8964 estimate D2E/DX2         !
 ! D152  D(41,36,37,38)   179.7139  179.737   179.7978 estimate D2E/DX2         !
 ! D153  D(41,36,37,42)     0.2077    0.1757    0.1604 estimate D2E/DX2         !
 ! D154  D(36,37,38,32)  -178.8447 -179.2627 -179.5119 estimate D2E/DX2         !
 ! D155  D(36,37,38,39)     1.7178    1.3667    1.3922 estimate D2E/DX2         !
 ! D156  D(42,37,38,32)     0.6723    0.3067    0.1322 estimate D2E/DX2         !
 ! D157  D(42,37,38,39)  -178.7652 -179.0639 -178.9637 estimate D2E/DX2         !
 ! D158  D(32,38,39,31)    -2.773    -2.5673   -2.6519 estimate D2E/DX2         !
 ! D159  D(32,38,39,34)   175.9405  176.5107  176.5569 estimate D2E/DX2         !
 ! D160  D(37,38,39,31)   176.6789  176.824   176.4737 estimate D2E/DX2         !
 ! D161  D(37,38,39,34)    -4.6076   -4.0979   -4.3176 estimate D2E/DX2         !
 ! D162  D(31,43,44,32)     2.3371    2.6566    2.6995 estimate D2E/DX2         !
 ! D163  D(31,43,44,45)  -177.0324 -176.7383 -176.4112 estimate D2E/DX2         !
 ! D164  D(48,43,44,32)  -176.6893 -176.4191 -176.5346 estimate D2E/DX2         !
 ! D165  D(48,43,44,45)     3.9412    4.186     4.3546 estimate D2E/DX2         !
 ! D166  D(31,43,48,47)   177.4203  176.9457  176.5563 estimate D2E/DX2         !
 ! D167  D(31,43,48,52)    -4.7225   -5.2827   -6.1537 estimate D2E/DX2         !
 ! D168  D(44,43,48,47)    -3.5946   -4.0136   -4.2356 estimate D2E/DX2         !
 ! D169  D(44,43,48,52)   174.2626  173.758   173.0544 estimate D2E/DX2         !
 ! D170  D(32,44,45,46)   179.2178  179.2214  179.5474 estimate D2E/DX2         !
 ! D171  D(32,44,45,49)    -0.3594   -0.3466   -0.1163 estimate D2E/DX2         !
 ! D172  D(43,44,45,46)    -1.4306   -1.4041   -1.3722 estimate D2E/DX2         !
 ! D173  D(43,44,45,49)   178.9922  179.0279  178.9641 estimate D2E/DX2         !
 ! D174  D(44,45,46,47)    -1.4694   -1.6024   -1.7832 estimate D2E/DX2         !
 ! D175  D(44,45,46,50)  -179.7482 -179.7387 -179.8274 estimate D2E/DX2         !
 ! D176  D(49,45,46,47)   178.0988  177.9574  177.8742 estimate D2E/DX2         !
 ! D177  D(49,45,46,50)    -0.1801   -0.1789   -0.1699 estimate D2E/DX2         !
 ! D178  D(45,46,47,48)     1.8469    1.8123    1.9391 estimate D2E/DX2         !
 ! D179  D(45,46,47,51)  -175.7587 -175.853  -175.6076 estimate D2E/DX2         !
 ! D180  D(50,46,47,48)  -179.8524  179.9713 -179.9938 estimate D2E/DX2         !
 ! D181  D(50,46,47,51)     2.542     2.306     2.4595 estimate D2E/DX2         !
 ! D182  D(46,47,48,43)     0.7398    1.0412    1.1177 estimate D2E/DX2         !
 ! D183  D(46,47,48,52)  -177.1256 -176.7106 -176.1422 estimate D2E/DX2         !
 ! D184  D(51,47,48,43)   178.3252  178.691   178.648  estimate D2E/DX2         !
 ! D185  D(51,47,48,52)     0.4597    0.9392    1.388  estimate D2E/DX2         !
 ! D186  D(43,48,52,23)   134.5811  131.8205  132.61   estimate D2E/DX2         !
 ! D187  D(43,48,52,54)   -45.7345  -47.8786  -47.4405 estimate D2E/DX2         !
 ! D188  D(47,48,52,23)   -47.5903  -50.4459  -50.15   estimate D2E/DX2         !
 ! D189  D(47,48,52,54)   132.0941  129.855   129.7995 estimate D2E/DX2         !
 ! D190  D(23,52,54,21)    -5.5568   -4.2914   -5.0121 estimate D2E/DX2         !
 ! D191  D(23,52,54,55)   174.8333  175.9547  175.1833 estimate D2E/DX2         !
 ! D192  D(48,52,54,21)   174.7419  175.4238  175.0354 estimate D2E/DX2         !
 ! D193  D(48,52,54,55)    -4.868    -4.3301   -4.7691 estimate D2E/DX2         !
 ! D194  D(17,57,58,18)    -0.0414   -0.0068    0.5552 estimate D2E/DX2         !
 ! D195  D(17,57,58,59)   179.8666  179.9986 -179.7151 estimate D2E/DX2         !
 ! D196  D(60,57,58,18)   179.9569  179.991  -179.607  estimate D2E/DX2         !
 ! D197  D(60,57,58,59)    -0.1351   -0.0036    0.1226 estimate D2E/DX2         !
 --------------------------------------------------------------------------------
 Trust Radius=3.00D-01 FncErr=1.00D-07 GrdErr=1.00D-06 EigMax=2.50D+02 EigMin=1.00D-04
 Number of steps in this run=    378 maximum allowed number of steps=    378.
 Search for a saddle point of order  1.
 GradGradGradGradGradGradGradGradGradGradGradGradGradGradGradGradGradGrad

 Stoichiometry    C34H21BrMnN3O3
 Framework group  C1[X(C34H21BrMnN3O3)]
 Deg. of freedom   183
 Full point group                 C1      NOp   1
 Largest Abelian subgroup         C1      NOp   1
 Largest concise Abelian subgroup C1      NOp   1
                         Standard orientation:                         
 ---------------------------------------------------------------------
 Center     Atomic      Atomic             Coordinates (Angstroms)
 Number     Number       Type             X           Y           Z
 ---------------------------------------------------------------------
      1         25           0       -1.558203   -1.809696   -0.035772
      2          6           0       -2.470115   -2.699087   -1.353201
      3          8           0       -2.920811   -3.335373   -2.190584
      4          6           0       -2.463670   -2.716314    1.282211
      5          8           0       -2.910158   -3.360295    2.116825
      6          6           0       -0.387807   -3.135875   -0.050936
      7          7           0       -0.546026   -0.872479    1.565040
      8          6           0       -0.663552    0.568949    3.475500
      9          6           0        0.720571    0.725262    3.472332
     10          6           0        0.786134   -0.803353    1.642701
     11          1           0       -1.288440    1.079723    4.212282
     12          1           0        1.205528    1.388269    4.193907
     13          7           0       -2.092916    0.691988    0.041587
     14          6           0       -2.243043    1.839205    0.049727
     15          6           0       -2.460569    3.263311    0.063601
     16          6           0       -1.375001    4.142573   -0.015614
     17          6           0       -1.603413    5.518781   -0.006951
     18          6           0       -3.766783    3.756013    0.154002
     19          1           0       -0.364619    3.744033   -0.088189
     20          1           0       -4.598187    3.050505    0.213825
     21          7           0       -0.554891   -0.799320   -1.573600
     22          6           0       -0.689175    0.793044   -3.358816
     23          6           0        0.696776    0.922467   -3.381047
     24          1           0       -1.321746    1.376332   -4.029282
     25          6           0       -1.257273   -0.217073    2.499202
     26          1           0       -2.345756   -0.306823    2.442333
     27          6           0       -1.275010   -0.061246   -2.435722
     28          1           0       -2.362287   -0.140031   -2.356966
     29          1           0       -0.764118    6.211368   -0.070617
     30          8           0        0.330641   -4.038914   -0.055332
     31          6           0        3.008560    0.346517    0.001263
     32          6           0        5.787242    0.179102   -0.012076
     33          6           0        1.484128    0.021796    2.535315
     34          6           0        2.972040    0.113910    2.490042
     35          6           0        3.702109    0.049622    3.650702
     36          6           0        5.129672    0.068634    3.641561
     37          6           0        5.815669    0.105989    2.462938
     38          6           0        5.111203    0.163784    1.214799
     39          6           0        3.675018    0.219391    1.224264
     40          1           0        3.184211   -0.056610    4.607642
     41          1           0        5.666847    0.019886    4.592386
     42          1           0        6.909321    0.084521    2.448461
     43          6           0        3.667293    0.256438   -1.229937
     44          6           0        5.103031    0.195919   -1.234159
     45          6           0        5.797097    0.168158   -2.489987
     46          6           0        5.101232    0.169488   -3.663285
     47          6           0        3.673230    0.166946   -3.662043
     48          6           0        2.954011    0.200787   -2.492893
     49          1           0        6.891105    0.138928   -2.486114
     50          1           0        5.631338    0.144165   -4.619642
     51          1           0        3.147060    0.097203   -4.617757
     52          6           0        1.465641    0.132639   -2.523287
     53          1           0        1.178089    1.638004   -4.053909
     54          6           0        0.773948   -0.747622   -1.680806
     55          1           0        1.338797   -1.440583   -1.058485
     56          1           0        1.347007   -1.437491    0.954614
     57          6           0       -2.900869    6.012788    0.083616
     58          6           0       -3.979330    5.134901    0.164284
     59          1           0       -4.991248    5.529179    0.237088
     60          1           0       -3.074301    7.095179    0.091443
     61         35           0       -4.520651   -1.144182   -0.057439
     62          1           0        6.881909    0.161973   -0.016326
     63          1           0        1.932839    0.511307    0.005683
 ---------------------------------------------------------------------
 Rotational constants (GHZ):           0.0925903           0.0553429           0.0513911
 General basis read from cards:  (5D, 7F)
 There are   802 symmetry adapted cartesian basis functions of A   symmetry.
 There are   751 symmetry adapted basis functions of A   symmetry.
   751 basis functions,  1339 primitive gaussians,   802 cartesian basis functions
   165 alpha electrons      165 beta electrons
       nuclear repulsion energy      6073.2886315133 Hartrees.
 NAtoms=   63 NActive=   63 NUniq=   63 SFac= 1.00D+00 NAtFMM=   60 NAOKFM=T Big=T
 Integral buffers will be    131072 words long.
 Raffenetti 2 integral format.
 Two-electron integral symmetry is turned on.
 Nuclear repulsion after empirical dispersion term =     6073.2233643491 Hartrees.
 ------------------------------------------------------------------------------
 Polarizable Continuum Model (PCM)
 =================================
 Model                : PCM.
 Atomic radii         : UFF (Universal Force Field).
 Polarization charges : Total charges.
 Charge compensation  : None.
 Solution method      : On-the-fly selection.
 Cavity type          : Scaled VdW (van der Waals Surface) (Alpha=1.100).
 Cavity algorithm     : GePol (No added spheres)
                        Default sphere list used, NSphG=   63.
                        Lebedev-Laikov grids with approx.  5.0 points / Ang**2.
                        Smoothing algorithm: York/Karplus (Gamma=1.0000).
                        Polarization charges: spherical gaussians, with
                                              point-specific exponents (IZeta= 3).
                        Self-potential: point-specific (ISelfS= 7).
                        Self-field    : sphere-specific E.n sum rule (ISelfD= 2).
 1st derivatives      : Analytical E(r).r(x)/FMM algorithm (CHGder, D1EAlg=3).
                        Cavity 1st derivative terms included.
 Solvent              : TetraHydroFuran, Eps=   7.425700 Eps(inf)=   1.974025
 ------------------------------------------------------------------------------
 One-electron integrals computed using PRISM.
 PrsmSu:  requested number of processors reduced to:  11 ShMem   1 Linda.
 NBasis=   751 RedAO= T EigKep=  2.28D-04  NBF=   751
 NBsUse=   751 1.00D-06 EigRej= -1.00D+00 NBFU=   751
 ExpMin= 3.93D-02 ExpMax= 2.77D+05 ExpMxC= 1.70D+04 IAcc=3 IRadAn=         5 AccDes= 0.00D+00
 Harris functional with IExCor= 4639 and IRadAn=       5 diagonalized for initial guess.
 HarFok:  IExCor= 4639 AccDes= 0.00D+00 IRadAn=         5 IDoV= 1 UseB2=F ITyADJ=14
 ICtDFT=  3500011 ScaDFX=  1.000000  1.000000  1.000000  1.000000
 FoFCou: FMM=F IPFlag=           0 FMFlag=      100000 FMFlg1=        2001
         NFxFlg=           0 DoJE=T BraDBF=F KetDBF=T FulRan=T
         wScrn=  0.000000 ICntrl=       500 IOpCl=  0 I1Cent=   200000004 NGrid=           0
         NMat0=    1 NMatS0=      1 NMatT0=    0 NMatD0=    1 NMtDS0=    0 NMtDT0=    0
 Petite list used in FoFCou.
 Requested convergence on RMS density matrix=1.00D-08 within 128 cycles.
 Requested convergence on MAX density matrix=1.00D-06.
 Requested convergence on             energy=1.00D-06.
 No special actions if energy rises.
 CoulSu:  requested number of processors reduced to:   9 ShMem   1 Linda.
 Inv3:  Mode=1 IEnd=    67687500.
 Iteration    1 A*A^-1 deviation from unit magnitude is 3.11D-15 for    216.
 Iteration    1 A*A^-1 deviation from orthogonality  is 2.11D-15 for   3735    267.
 Iteration    1 A^-1*A deviation from unit magnitude is 3.11D-15 for    216.
 Iteration    1 A^-1*A deviation from orthogonality  is 2.22D-15 for   3123    514.
 CoulSu:  requested number of processors reduced to:   9 ShMem   1 Linda.
 CoulSu:  requested number of processors reduced to:   9 ShMem   1 Linda.
 Error on total polarization charges =  0.02007
 SCF Done:  E(RwB97XD) =  -5421.43115870     A.U. after   19 cycles
            NFock= 19  Conv=0.71D-08     -V/T= 2.0041

 **********************************************************************

            Population analysis using the SCF density.

 **********************************************************************

 Orbital symmetries:
       Occupied  (A) (A) (A) (A) (A) (A) (A) (A) (A) (A) (A) (A)
                 (A) (A) (A) (A) (A) (A) (A) (A) (A) (A) (A) (A)
                 (A) (A) (A) (A) (A) (A) (A) (A) (A) (A) (A) (A)
                 (A) (A) (A) (A) (A) (A) (A) (A) (A) (A) (A) (A)
                 (A) (A) (A) (A) (A) (A) (A) (A) (A) (A) (A) (A)
                 (A) (A) (A) (A) (A) (A) (A) (A) (A) (A) (A) (A)
                 (A) (A) (A) (A) (A) (A) (A) (A) (A) (A) (A) (A)
                 (A) (A) (A) (A) (A) (A) (A) (A) (A) (A) (A) (A)
                 (A) (A) (A) (A) (A) (A) (A) (A) (A) (A) (A) (A)
                 (A) (A) (A) (A) (A) (A) (A) (A) (A) (A) (A) (A)
                 (A) (A) (A) (A) (A) (A) (A) (A) (A) (A) (A) (A)
                 (A) (A) (A) (A) (A) (A) (A) (A) (A) (A) (A) (A)
                 (A) (A) (A) (A) (A) (A) (A) (A) (A) (A) (A) (A)
                 (A) (A) (A) (A) (A) (A) (A) (A) (A)
       Virtual   (A) (A) (A) (A) (A) (A) (A) (A) (A) (A) (A) (A)
                 (A) (A) (A) (A) (A) (A) (A) (A) (A) (A) (A) (A)
                 (A) (A) (A) (A) (A) (A) (A) (A) (A) (A) (A) (A)
                 (A) (A) (A) (A) (A) (A) (A) (A) (A) (A) (A) (A)
                 (A) (A) (A) (A) (A) (A) (A) (A) (A) (A) (A) (A)
                 (A) (A) (A) (A) (A) (A) (A) (A) (A) (A) (A) (A)
                 (A) (A) (A) (A) (A) (A) (A) (A) (A) (A) (A) (A)
                 (A) (A) (A) (A) (A) (A) (A) (A) (A) (A) (A) (A)
                 (A) (A) (A) (A) (A) (A) (A) (A) (A) (A) (A) (A)
                 (A) (A) (A) (A) (A) (A) (A) (A) (A) (A) (A) (A)
                 (A) (A) (A) (A) (A) (A) (A) (A) (A) (A) (A) (A)
                 (A) (A) (A) (A) (A) (A) (A) (A) (A) (A) (A) (A)
                 (A) (A) (A) (A) (A) (A) (A) (A) (A) (A) (A) (A)
                 (A) (A) (A) (A) (A) (A) (A) (A) (A) (A) (A) (A)
                 (A) (A) (A) (A) (A) (A) (A) (A) (A) (A) (A) (A)
                 (A) (A) (A) (A) (A) (A) (A) (A) (A) (A) (A) (A)
                 (A) (A) (A) (A) (A) (A) (A) (A) (A) (A) (A) (A)
                 (A) (A) (A) (A) (A) (A) (A) (A) (A) (A) (A) (A)
                 (A) (A) (A) (A) (A) (A) (A) (A) (A) (A) (A) (A)
                 (A) (A) (A) (A) (A) (A) (A) (A) (A) (A) (A) (A)
                 (A) (A) (A) (A) (A) (A) (A) (A) (A) (A) (A) (A)
                 (A) (A) (A) (A) (A) (A) (A) (A) (A) (A) (A) (A)
                 (A) (A) (A) (A) (A) (A) (A) (A) (A) (A) (A) (A)
                 (A) (A) (A) (A) (A) (A) (A) (A) (A) (A) (A) (A)
                 (A) (A) (A) (A) (A) (A) (A) (A) (A) (A) (A) (A)
                 (A) (A) (A) (A) (A) (A) (A) (A) (A) (A) (A) (A)
                 (A) (A) (A) (A) (A) (A) (A) (A) (A) (A) (A) (A)
                 (A) (A) (A) (A) (A) (A) (A) (A) (A) (A) (A) (A)
                 (A) (A) (A) (A) (A) (A) (A) (A) (A) (A) (A) (A)
                 (A) (A) (A) (A) (A) (A) (A) (A) (A) (A) (A) (A)
                 (A) (A) (A) (A) (A) (A) (A) (A) (A) (A) (A) (A)
                 (A) (A) (A) (A) (A) (A) (A) (A) (A) (A) (A) (A)
                 (A) (A) (A) (A) (A) (A) (A) (A) (A) (A) (A) (A)
                 (A) (A) (A) (A) (A) (A) (A) (A) (A) (A) (A) (A)
                 (A) (A) (A) (A) (A) (A) (A) (A) (A) (A) (A) (A)
                 (A) (A) (A) (A) (A) (A) (A) (A) (A) (A) (A) (A)
                 (A) (A) (A) (A) (A) (A) (A) (A) (A) (A) (A) (A)
                 (A) (A) (A) (A) (A) (A) (A) (A) (A) (A) (A) (A)
                 (A) (A) (A) (A) (A) (A) (A) (A) (A) (A) (A) (A)
                 (A) (A) (A) (A) (A) (A) (A) (A) (A) (A) (A) (A)
                 (A) (A) (A) (A) (A) (A) (A) (A) (A) (A) (A) (A)
                 (A) (A) (A) (A) (A) (A) (A) (A) (A) (A) (A) (A)
                 (A) (A) (A) (A) (A) (A) (A) (A) (A) (A) (A) (A)
                 (A) (A) (A) (A) (A) (A) (A) (A) (A) (A) (A) (A)
                 (A) (A) (A) (A) (A) (A) (A) (A) (A) (A) (A) (A)
                 (A) (A) (A) (A) (A) (A) (A) (A) (A) (A) (A) (A)
                 (A) (A) (A) (A) (A) (A) (A) (A) (A) (A) (A) (A)
                 (A) (A) (A) (A) (A) (A) (A) (A) (A) (A) (A) (A)
                 (A) (A) (A) (A) (A) (A) (A) (A) (A) (A)
 The electronic state is 1-A.
 Alpha  occ. eigenvalues -- -482.96572-235.68995 -62.54604 -56.35189 -56.35150
 Alpha  occ. eigenvalues --  -56.35134 -27.45760 -23.51563 -23.51512 -23.51190
 Alpha  occ. eigenvalues --  -19.33121 -19.32886 -19.32718 -14.49979 -14.49949
 Alpha  occ. eigenvalues --  -14.46633 -10.40909 -10.40738 -10.40482 -10.36591
 Alpha  occ. eigenvalues --  -10.36590 -10.36200 -10.36028 -10.35984 -10.35602
 Alpha  occ. eigenvalues --  -10.34338 -10.34285 -10.34192 -10.34180 -10.33499
 Alpha  occ. eigenvalues --  -10.33475 -10.33432 -10.33293 -10.33229 -10.33219
 Alpha  occ. eigenvalues --  -10.32975 -10.32940 -10.32785 -10.32784 -10.32628
 Alpha  occ. eigenvalues --  -10.32395 -10.32320 -10.32191 -10.32189 -10.32013
 Alpha  occ. eigenvalues --  -10.31965 -10.31910 -10.31905 -10.31760 -10.31758
 Alpha  occ. eigenvalues --   -8.71367  -6.53149  -6.53013  -6.52957  -3.25183
 Alpha  occ. eigenvalues --   -2.63645  -2.63619  -2.63575  -2.63465  -2.63462
 Alpha  occ. eigenvalues --   -2.10861  -2.10490  -2.09937  -1.22090  -1.21918
 Alpha  occ. eigenvalues --   -1.21379  -1.08050  -1.07721  -1.02269  -1.00050
 Alpha  occ. eigenvalues --   -0.97983  -0.97352  -0.94131  -0.92930  -0.91175
 Alpha  occ. eigenvalues --   -0.90490  -0.89423  -0.88295  -0.87127  -0.86352
 Alpha  occ. eigenvalues --   -0.85014  -0.84767  -0.81751  -0.76549  -0.76349
 Alpha  occ. eigenvalues --   -0.75476  -0.75033  -0.75010  -0.74656  -0.74110
 Alpha  occ. eigenvalues --   -0.72185  -0.72037  -0.70048  -0.68752  -0.67414
 Alpha  occ. eigenvalues --   -0.65764  -0.64552  -0.64423  -0.64291  -0.63846
 Alpha  occ. eigenvalues --   -0.63722  -0.62402  -0.61779  -0.60588  -0.59686
 Alpha  occ. eigenvalues --   -0.59233  -0.57560  -0.57412  -0.57319  -0.57072
 Alpha  occ. eigenvalues --   -0.56232  -0.56046  -0.55764  -0.55650  -0.55209
 Alpha  occ. eigenvalues --   -0.55040  -0.54613  -0.54526  -0.54175  -0.54129
 Alpha  occ. eigenvalues --   -0.53324  -0.53190  -0.52931  -0.52911  -0.52287
 Alpha  occ. eigenvalues --   -0.52129  -0.51833  -0.51041  -0.51011  -0.50784
 Alpha  occ. eigenvalues --   -0.50467  -0.50099  -0.49896  -0.49263  -0.48749
 Alpha  occ. eigenvalues --   -0.48107  -0.48074  -0.47369  -0.47074  -0.46114
 Alpha  occ. eigenvalues --   -0.45955  -0.45146  -0.44696  -0.43960  -0.43509
 Alpha  occ. eigenvalues --   -0.42873  -0.41716  -0.41468  -0.40936  -0.40472
 Alpha  occ. eigenvalues --   -0.39998  -0.39202  -0.37546  -0.36189  -0.35601
 Alpha  occ. eigenvalues --   -0.35341  -0.33817  -0.33231  -0.33132  -0.32170
 Alpha  occ. eigenvalues --   -0.30858  -0.30056  -0.29779  -0.27869  -0.27815
 Alpha virt. eigenvalues --   -0.02919   0.00036   0.00579   0.00598   0.02068
 Alpha virt. eigenvalues --    0.02417   0.02504   0.03746   0.03833   0.05776
 Alpha virt. eigenvalues --    0.05993   0.06903   0.07822   0.07993   0.09183
 Alpha virt. eigenvalues --    0.09385   0.09588   0.09981   0.11622   0.12046
 Alpha virt. eigenvalues --    0.12309   0.12666   0.13493   0.13892   0.14217
 Alpha virt. eigenvalues --    0.14410   0.14767   0.15281   0.15412   0.16134
 Alpha virt. eigenvalues --    0.16255   0.16601   0.17290   0.18022   0.18832
 Alpha virt. eigenvalues --    0.19130   0.19689   0.19760   0.20659   0.20854
 Alpha virt. eigenvalues --    0.20886   0.21860   0.22194   0.22361   0.22881
 Alpha virt. eigenvalues --    0.23256   0.23531   0.23694   0.24838   0.25330
 Alpha virt. eigenvalues --    0.26757   0.27211   0.27692   0.27828   0.28756
 Alpha virt. eigenvalues --    0.28948   0.30041   0.30133   0.30769   0.30865
 Alpha virt. eigenvalues --    0.31182   0.31708   0.32409   0.32560   0.32941
 Alpha virt. eigenvalues --    0.33374   0.33675   0.33875   0.34058   0.34129
 Alpha virt. eigenvalues --    0.34207   0.34994   0.35501   0.35865   0.36131
 Alpha virt. eigenvalues --    0.36414   0.36683   0.36825   0.37389   0.37526
 Alpha virt. eigenvalues --    0.38323   0.38546   0.39006   0.39224   0.40001
 Alpha virt. eigenvalues --    0.40423   0.40776   0.41926   0.42031   0.42211
 Alpha virt. eigenvalues --    0.42306   0.42879   0.43063   0.44024   0.44400
 Alpha virt. eigenvalues --    0.44751   0.46014   0.46091   0.47147   0.47432
 Alpha virt. eigenvalues --    0.47671   0.48363   0.48623   0.48751   0.49419
 Alpha virt. eigenvalues --    0.50492   0.50648   0.50894   0.51186   0.51697
 Alpha virt. eigenvalues --    0.52466   0.52587   0.52955   0.53073   0.53425
 Alpha virt. eigenvalues --    0.53523   0.53633   0.54455   0.54576   0.55029
 Alpha virt. eigenvalues --    0.55277   0.55659   0.56146   0.56173   0.56313
 Alpha virt. eigenvalues --    0.56916   0.57501   0.57993   0.58378   0.58751
 Alpha virt. eigenvalues --    0.59246   0.59815   0.60349   0.60579   0.60972
 Alpha virt. eigenvalues --    0.61179   0.61448   0.61538   0.62136   0.62506
 Alpha virt. eigenvalues --    0.63498   0.64185   0.64337   0.64747   0.65301
 Alpha virt. eigenvalues --    0.65820   0.66319   0.66389   0.66973   0.67327
 Alpha virt. eigenvalues --    0.67479   0.68281   0.68401   0.68518   0.69389
 Alpha virt. eigenvalues --    0.69460   0.70334   0.70472   0.70819   0.71457
 Alpha virt. eigenvalues --    0.71912   0.72048   0.72226   0.72593   0.72693
 Alpha virt. eigenvalues --    0.73170   0.73315   0.73613   0.73730   0.74066
 Alpha virt. eigenvalues --    0.74566   0.74641   0.74862   0.75159   0.75588
 Alpha virt. eigenvalues --    0.75883   0.76081   0.76237   0.76553   0.76991
 Alpha virt. eigenvalues --    0.77332   0.77396   0.77720   0.78026   0.78778
 Alpha virt. eigenvalues --    0.79115   0.79428   0.79639   0.80421   0.80460
 Alpha virt. eigenvalues --    0.80653   0.80745   0.81580   0.81713   0.82000
 Alpha virt. eigenvalues --    0.82657   0.82787   0.83105   0.83518   0.84024
 Alpha virt. eigenvalues --    0.84473   0.84978   0.85461   0.85847   0.85958
 Alpha virt. eigenvalues --    0.86246   0.86443   0.86923   0.87295   0.87820
 Alpha virt. eigenvalues --    0.87842   0.88130   0.88448   0.88668   0.89710
 Alpha virt. eigenvalues --    0.90026   0.90300   0.90921   0.91274   0.91382
 Alpha virt. eigenvalues --    0.91866   0.92109   0.92286   0.93064   0.94147
 Alpha virt. eigenvalues --    0.94322   0.95441   0.95802   0.96093   0.96525
 Alpha virt. eigenvalues --    0.97010   0.97180   0.98021   0.98318   0.98945
 Alpha virt. eigenvalues --    1.00782   1.01403   1.01805   1.02149   1.02478
 Alpha virt. eigenvalues --    1.03079   1.03598   1.05842   1.06743   1.06922
 Alpha virt. eigenvalues --    1.07917   1.08070   1.09474   1.10549   1.11351
 Alpha virt. eigenvalues --    1.12091   1.12404   1.12887   1.14708   1.15773
 Alpha virt. eigenvalues --    1.15929   1.16298   1.17046   1.17220   1.17450
 Alpha virt. eigenvalues --    1.18284   1.19118   1.19565   1.21003   1.21781
 Alpha virt. eigenvalues --    1.22027   1.23249   1.23938   1.25121   1.25475
 Alpha virt. eigenvalues --    1.26026   1.26425   1.26808   1.28231   1.28660
 Alpha virt. eigenvalues --    1.29672   1.29757   1.29881   1.30482   1.30555
 Alpha virt. eigenvalues --    1.30809   1.31347   1.31699   1.32090   1.32445
 Alpha virt. eigenvalues --    1.32626   1.34053   1.34342   1.34430   1.35218
 Alpha virt. eigenvalues --    1.35300   1.35491   1.36080   1.36204   1.36365
 Alpha virt. eigenvalues --    1.36449   1.38029   1.38781   1.38954   1.39241
 Alpha virt. eigenvalues --    1.40070   1.40099   1.41048   1.42203   1.42537
 Alpha virt. eigenvalues --    1.43377   1.44624   1.45102   1.45551   1.46110
 Alpha virt. eigenvalues --    1.48085   1.49735   1.50770   1.51029   1.52675
 Alpha virt. eigenvalues --    1.55554   1.55887   1.56754   1.58061   1.60044
 Alpha virt. eigenvalues --    1.60099   1.60715   1.62851   1.64545   1.64720
 Alpha virt. eigenvalues --    1.66562   1.66693   1.67690   1.68039   1.69817
 Alpha virt. eigenvalues --    1.71071   1.72021   1.72564   1.72770   1.73024
 Alpha virt. eigenvalues --    1.73186   1.73663   1.73947   1.74033   1.74902
 Alpha virt. eigenvalues --    1.75369   1.75801   1.76724   1.77380   1.77614
 Alpha virt. eigenvalues --    1.78386   1.78447   1.78981   1.79221   1.79543
 Alpha virt. eigenvalues --    1.79726   1.79981   1.80160   1.80699   1.80956
 Alpha virt. eigenvalues --    1.81251   1.81396   1.81685   1.81800   1.81994
 Alpha virt. eigenvalues --    1.82368   1.82510   1.82584   1.82858   1.83219
 Alpha virt. eigenvalues --    1.83796   1.84277   1.84520   1.85135   1.85196
 Alpha virt. eigenvalues --    1.86031   1.86132   1.86858   1.87640   1.87986
 Alpha virt. eigenvalues --    1.88875   1.89771   1.90014   1.90455   1.90729
 Alpha virt. eigenvalues --    1.90940   1.91290   1.91820   1.92474   1.93986
 Alpha virt. eigenvalues --    1.94476   1.95151   1.96035   1.96632   1.97046
 Alpha virt. eigenvalues --    1.97324   1.98207   1.98395   1.99528   2.00280
 Alpha virt. eigenvalues --    2.00597   2.00966   2.01695   2.01937   2.02684
 Alpha virt. eigenvalues --    2.03064   2.03618   2.03885   2.04520   2.04746
 Alpha virt. eigenvalues --    2.05531   2.05693   2.06124   2.06622   2.07301
 Alpha virt. eigenvalues --    2.08795   2.09312   2.09890   2.10426   2.10664
 Alpha virt. eigenvalues --    2.11060   2.12086   2.12393   2.14027   2.15366
 Alpha virt. eigenvalues --    2.15581   2.15721   2.16930   2.17101   2.17408
 Alpha virt. eigenvalues --    2.18092   2.18774   2.20031   2.20284   2.20771
 Alpha virt. eigenvalues --    2.20870   2.21500   2.21617   2.21926   2.23031
 Alpha virt. eigenvalues --    2.23966   2.24137   2.24638   2.26049   2.26509
 Alpha virt. eigenvalues --    2.26982   2.29672   2.30596   2.31343   2.31770
 Alpha virt. eigenvalues --    2.31967   2.32199   2.32756   2.34332   2.34679
 Alpha virt. eigenvalues --    2.35068   2.36860   2.37105   2.37291   2.37511
 Alpha virt. eigenvalues --    2.38065   2.38319   2.38735   2.39250   2.39757
 Alpha virt. eigenvalues --    2.41107   2.41596   2.42166   2.42313   2.43244
 Alpha virt. eigenvalues --    2.44121   2.45320   2.45408   2.46453   2.46952
 Alpha virt. eigenvalues --    2.48047   2.48584   2.50216   2.50652   2.50717
 Alpha virt. eigenvalues --    2.54108   2.55674   2.57038   2.58656   2.59399
 Alpha virt. eigenvalues --    2.60759   2.61486   2.61837   2.64083   2.64696
 Alpha virt. eigenvalues --    2.66101   2.66843   2.66993   2.67404   2.67644
 Alpha virt. eigenvalues --    2.68258   2.68499   2.70933   2.71040   2.71084
 Alpha virt. eigenvalues --    2.71271   2.71306   2.71775   2.71985   2.72243
 Alpha virt. eigenvalues --    2.72419   2.72791   2.73546   2.74388   2.74761
 Alpha virt. eigenvalues --    2.75730   2.76721   2.79296   2.79577   2.79990
 Alpha virt. eigenvalues --    2.80639   2.80787   2.81096   2.81780   2.82194
 Alpha virt. eigenvalues --    2.84584   2.85787   2.86257   2.87013   2.87306
 Alpha virt. eigenvalues --    2.89798   2.90175   2.91705   2.95162   2.95351
 Alpha virt. eigenvalues --    2.95826   2.97961   2.98183   2.99527   3.01123
 Alpha virt. eigenvalues --    3.03222   3.05192   3.06025   3.06421   3.07624
 Alpha virt. eigenvalues --    3.09192   3.09693   3.10329   3.11951   3.12779
 Alpha virt. eigenvalues --    3.16024   3.16393   3.19423   3.19973   3.20735
 Alpha virt. eigenvalues --    3.21079   3.21178   3.22708   3.23389   3.25076
 Alpha virt. eigenvalues --    3.25420   3.30008   3.31235   3.32878   3.35065
 Alpha virt. eigenvalues --    3.38544   3.39154   3.42302   3.48877   3.49625
 Alpha virt. eigenvalues --    3.50677   3.53301   3.56835   3.57034   3.60659
 Alpha virt. eigenvalues --    3.62699   3.63544   3.64215   3.65498   3.65803
 Alpha virt. eigenvalues --    3.66366   3.66686   3.70782   3.71981   3.72837
 Alpha virt. eigenvalues --    3.76479   3.76577   3.77116   3.82032   3.82358
 Alpha virt. eigenvalues --    3.84658   3.91194   3.95159   3.99608   4.06297
 Alpha virt. eigenvalues --    4.13912
          Condensed to atoms (all electrons):
 Mulliken charges:
               1
     1  Mn  -0.709744
     2  C    0.362999
     3  O   -0.069775
     4  C    0.360957
     5  O   -0.068008
     6  C    0.307266
     7  N   -0.217923
     8  C   -0.036594
     9  C    0.034427
    10  C    0.095020
    11  H    0.060757
    12  H    0.053524
    13  N    0.029896
    14  C    0.003404
    15  C   -0.152268
    16  C    0.024295
    17  C   -0.025064
    18  C    0.023151
    19  H    0.043076
    20  H    0.063424
    21  N   -0.218681
    22  C   -0.036837
    23  C    0.038447
    24  H    0.059450
    25  C    0.108586
    26  H    0.091951
    27  C    0.111709
    28  H    0.094075
    29  H    0.050446
    30  O   -0.090622
    31  C   -0.185605
    32  C   -0.083955
    33  C   -0.037615
    34  C    0.066111
    35  C   -0.068208
    36  C   -0.018348
    37  C   -0.018892
    38  C    0.016245
    39  C    0.081519
    40  H    0.035232
    41  H    0.043498
    42  H    0.031968
    43  C    0.080196
    44  C    0.015935
    45  C   -0.018797
    46  C   -0.019640
    47  C   -0.064659
    48  C    0.060839
    49  H    0.032120
    50  H    0.043829
    51  H    0.034960
    52  C   -0.042688
    53  H    0.053235
    54  C    0.094169
    55  H    0.064883
    56  H    0.062114
    57  C   -0.008233
    58  C   -0.022857
    59  H    0.051560
    60  H    0.055702
    61  Br  -0.794276
    62  H    0.020964
    63  H    0.047349
 Sum of Mulliken charges =  -0.00000
 Mulliken charges with hydrogens summed into heavy atoms:
               1
     1  Mn  -0.709744
     2  C    0.362999
     3  O   -0.069775
     4  C    0.360957
     5  O   -0.068008
     6  C    0.307266
     7  N   -0.217923
     8  C    0.024163
     9  C    0.087951
    10  C    0.157134
    13  N    0.029896
    14  C    0.003404
    15  C   -0.152268
    16  C    0.067371
    17  C    0.025382
    18  C    0.086575
    21  N   -0.218681
    22  C    0.022614
    23  C    0.091683
    25  C    0.200537
    27  C    0.205784
    30  O   -0.090622
    31  C   -0.138257
    32  C   -0.062990
    33  C   -0.037615
    34  C    0.066111
    35  C   -0.032976
    36  C    0.025150
    37  C    0.013077
    38  C    0.016245
    39  C    0.081519
    43  C    0.080196
    44  C    0.015935
    45  C    0.013323
    46  C    0.024189
    47  C   -0.029699
    48  C    0.060839
    52  C   -0.042688
    54  C    0.159052
    57  C    0.047470
    58  C    0.028702
    61  Br  -0.794276
 Electronic spatial extent (au):  <R**2>=          23131.0101
 Charge=             -0.0000 electrons
 Dipole moment (field-independent basis, Debye):
    X=             16.0393    Y=             13.0747    Z=              0.4419  Tot=             20.6979
 Quadrupole moment (field-independent basis, Debye-Ang):
   XX=           -290.3747   YY=           -249.4060   ZZ=           -221.1214
   XY=            -38.7080   XZ=             -2.1986   YZ=             -1.1984
 Traceless Quadrupole moment (field-independent basis, Debye-Ang):
   XX=            -36.7407   YY=              4.2280   ZZ=             32.5126
   XY=            -38.7080   XZ=             -2.1986   YZ=             -1.1984
 Octapole moment (field-independent basis, Debye-Ang**2):
  XXX=            360.0121  YYY=            162.6324  ZZZ=              5.3865  XYY=           -137.6379
  XXY=            145.0778  XXZ=              9.9003  XZZ=             34.8237  YZZ=             12.1276
  YYZ=             -0.7376  XYZ=             -3.3532
 Hexadecapole moment (field-independent basis, Debye-Ang**3):
 XXXX=         -15979.3025 YYYY=          -6732.3255 ZZZZ=          -5680.8935 XXXY=           -624.7720
 XXXZ=            -43.1857 YYYX=           -397.7732 YYYZ=              9.2024 ZZZX=              1.8398
 ZZZY=            -15.5736 XXYY=          -3995.3576 XXZZ=          -3395.3191 YYZZ=          -2544.8752
 XXYZ=              6.9595 YYXZ=            -21.6462 ZZXY=             49.1783
 N-N= 6.073223364349D+03 E-N=-2.497539985850D+04  KE= 5.399400547675D+03
 PrsmSu:  requested number of processors reduced to:  11 ShMem   1 Linda.
 D1PCM: PCM CHGder 1st derivatives, ID1Alg=3 FixD1E=F DoIter=F DoCFld=F I1PDM=0.
 CoulSu:  requested number of processors reduced to:  10 ShMem   1 Linda.
 CoulSu:  requested number of processors reduced to:  10 ShMem   1 Linda.
[...]
   D52       -3.06964   0.00013   0.00000   0.01031   0.01024  -3.05940
   D53       -3.06032  -0.00003   0.00000  -0.00025  -0.00025  -3.06058
   D54        0.07617  -0.00001   0.00000   0.00438   0.00434   0.08051
   D55        2.88750  -0.00010   0.00000   0.01083   0.01116   2.89866
   D56       -0.38554  -0.00011   0.00000  -0.00713  -0.00678  -0.39232
   D57        2.68839  -0.00006   0.00000  -0.02440  -0.02443   2.66395
   D58       -1.38356   0.00018   0.00000   0.05277   0.05263  -1.33093
   D59        3.08837   0.00002   0.00000  -0.01312  -0.01325   3.07512
   D60       -0.05062  -0.00001   0.00000  -0.00867  -0.00885  -0.05947
   D61       -0.01664  -0.00004   0.00000  -0.00170  -0.00154  -0.01818
   D62        3.12756  -0.00007   0.00000   0.00275   0.00286   3.13041
   D63        0.03688   0.00003   0.00000   0.01423   0.01454   0.05142
   D64       -3.09413  -0.00008   0.00000   0.01245   0.01257  -3.08156
   D65        3.14079   0.00008   0.00000   0.00244   0.00238  -3.14002
   D66        0.00978  -0.00002   0.00000   0.00066   0.00042   0.01020
   D67       -3.13118   0.00002   0.00000   0.00268   0.00263  -3.12854
   D68        0.01108   0.00003   0.00000   0.00063   0.00061   0.01169
   D69        0.00779   0.00005   0.00000  -0.00181  -0.00180   0.00599
   D70       -3.13313   0.00006   0.00000  -0.00386  -0.00382  -3.13695
   D71       -1.06879   0.00007   0.00000   0.00496   0.00494  -1.06385
   D72        2.07543   0.00004   0.00000   0.00946   0.00937   2.08480
   D73        0.00111   0.00002   0.00000   0.00147   0.00141   0.00253
   D74        3.14009  -0.00000   0.00000   0.00123   0.00120   3.14130
   D75       -3.13981   0.00004   0.00000  -0.00060  -0.00062  -3.14043
   D76       -0.00083   0.00001   0.00000  -0.00083  -0.00084  -0.00166
   D77       -1.27119  -0.00039   0.00000  -0.05661  -0.05726  -1.32845
   D78       -0.13771  -0.00052   0.00000  -0.04288  -0.04310  -0.18081
   D79        1.85962  -0.00029   0.00000  -0.05480  -0.05525   1.80436
   D80        2.99311  -0.00042   0.00000  -0.04107  -0.04110   2.95201
   D81        0.00254   0.00008   0.00000   0.00145   0.00161   0.00414
   D82        3.13961   0.00004   0.00000   0.00064   0.00075   3.14037
   D83       -3.12835  -0.00003   0.00000  -0.00037  -0.00039  -3.12874
   D84        0.00873  -0.00006   0.00000  -0.00117  -0.00124   0.00748
   D85        0.64012  -0.00003   0.00000  -0.01017  -0.01081   0.62930
   D86        3.00389  -0.00015   0.00000  -0.00224  -0.00223   3.00166
   D87       -0.11827  -0.00004   0.00000   0.00005   0.00007  -0.11820
   D88       -0.05605  -0.00022   0.00000  -0.01125  -0.01126  -0.06731
   D89        3.10498  -0.00011   0.00000  -0.00896  -0.00896   3.09601
   D90       -2.94801   0.00004   0.00000  -0.00159  -0.00156  -2.94956
   D91        0.20010   0.00008   0.00000   0.00031   0.00033   0.20043
   D92        0.10838   0.00012   0.00000   0.00812   0.00817   0.11655
   D93       -3.02670   0.00015   0.00000   0.01003   0.01005  -3.01665
   D94       -3.09730  -0.00006   0.00000   0.00176   0.00174  -3.09555
   D95        0.04184  -0.00011   0.00000  -0.00179  -0.00183   0.04001
   D96        0.05783   0.00002   0.00000   0.00398   0.00403   0.06186
   D97       -3.08622  -0.00003   0.00000   0.00043   0.00046  -3.08576
   D98       -1.74233  -0.00008   0.00000   0.00157   0.00134  -1.74099
   D99        1.38569  -0.00016   0.00000  -0.00065  -0.00095   1.38475
   D100      -0.02500   0.00016   0.00000   0.00543   0.00541  -0.01959
   D101       3.09646   0.00004   0.00000   0.00307   0.00304   3.09950
   D102       3.12989   0.00023   0.00000   0.00762   0.00766   3.13755
   D103      -0.03183   0.00012   0.00000   0.00525   0.00529  -0.02654
   D104       3.10791  -0.00012   0.00000  -0.00870  -0.00873   3.09918
   D105      -0.01125  -0.00012   0.00000  -0.00688  -0.00691  -0.01816
   D106      -0.03123  -0.00007   0.00000  -0.00516  -0.00517  -0.03640
   D107       3.13280  -0.00007   0.00000  -0.00334  -0.00335   3.12945
   D108      -2.97490   0.00008   0.00000  -0.00352  -0.00347  -2.97837
   D109       0.13887   0.00004   0.00000  -0.00143  -0.00141   0.13746
   D110      -3.09863   0.00005   0.00000  -0.00349  -0.00346  -3.10210
   D111       0.01513   0.00001   0.00000  -0.00140  -0.00140   0.01373
   D112       0.13083   0.00005   0.00000   0.00071   0.00072   0.13155
   D113      -3.03859   0.00001   0.00000   0.00280   0.00278  -3.03580
   D114      -0.14256  -0.00005   0.00000   0.00138   0.00135  -0.14121
   D115       2.96966  -0.00005   0.00000   0.00304   0.00298   2.97264
   D116      -0.01875  -0.00002   0.00000   0.00138   0.00137  -0.01738
   D117       3.09347  -0.00003   0.00000   0.00304   0.00301   3.09647
   D118       3.03466  -0.00002   0.00000  -0.00288  -0.00287   3.03179
   D119      -0.13630  -0.00003   0.00000  -0.00122  -0.00124  -0.13754
   D120      -0.08676  -0.00011   0.00000   0.02691   0.02698  -0.05978
   D121      -3.11015  -0.00008   0.00000   0.02680   0.02688  -3.08326
   D122       3.11420  -0.00002   0.00000  -0.00062  -0.00065   3.11355
   D123      -0.03495  -0.00000   0.00000  -0.00127  -0.00128  -0.03623
   D124       0.00060   0.00001   0.00000  -0.00260  -0.00260  -0.00200
   D125       3.13464   0.00002   0.00000  -0.00324  -0.00323   3.13140
   D126      -3.08776  -0.00001   0.00000   0.00094   0.00092  -3.08684
   D127       0.04627   0.00001   0.00000   0.00029   0.00029   0.04656
   D128       0.03130  -0.00000   0.00000   0.00124   0.00125   0.03255
   D129      -3.11696   0.00001   0.00000   0.00090   0.00092  -3.11605
   D130      -3.13826  -0.00003   0.00000   0.00323   0.00321  -3.13505
   D131      -0.00334  -0.00002   0.00000   0.00289   0.00288  -0.00046
   D132      -0.05009  -0.00002   0.00000  -0.00036  -0.00036  -0.05045
   D133       3.08484  -0.00000   0.00000  -0.00070  -0.00069   3.08414
   D134       0.85964   0.00000   0.00000   0.00234   0.00225   0.86189
   D135      -2.33610  -0.00004   0.00000   0.00680   0.00667  -2.32943
   D136      -2.27654  -0.00002   0.00000  -0.00257  -0.00263  -2.27917
   D137       0.81090  -0.00007   0.00000   0.00189   0.00179   0.81270
   D138       3.06625  -0.00005   0.00000   0.00472   0.00471   3.07096
   D139      -0.02810  -0.00007   0.00000   0.00218   0.00216  -0.02594
   D140      -0.02182  -0.00000   0.00000   0.00029   0.00032  -0.02150
   D141      -3.11616  -0.00002   0.00000  -0.00225  -0.00223  -3.11839
   D142       0.10548   0.00003   0.00000  -0.00479  -0.00479   0.10069
   D143      -3.00801   0.00007   0.00000  -0.00690  -0.00686  -3.01487
   D144      -3.08945  -0.00002   0.00000  -0.00040  -0.00044  -3.08989
   D145       0.08024   0.00003   0.00000  -0.00250  -0.00251   0.07773
   D146      -0.03635  -0.00002   0.00000   0.00168   0.00166  -0.03469
   D147       3.14147   0.00001   0.00000   0.00073   0.00072  -3.14099
   D148       3.05836  -0.00000   0.00000   0.00418   0.00417   3.06254
   D149      -0.04701   0.00003   0.00000   0.00323   0.00323  -0.04377
   D150       0.03425   0.00001   0.00000  -0.00136  -0.00137   0.03288
   D151      -3.10094   0.00003   0.00000  -0.00081  -0.00080  -3.10174
   D152       3.13915  -0.00002   0.00000  -0.00040  -0.00041   3.13874
   D153       0.00396   0.00001   0.00000   0.00015   0.00015   0.00412
   D154      -3.12416   0.00004   0.00000  -0.00149  -0.00146  -3.12562
   D155       0.02498   0.00002   0.00000  -0.00085  -0.00083   0.02415
   D156       0.01115   0.00002   0.00000  -0.00203  -0.00202   0.00913
   D157      -3.12290   0.00000   0.00000  -0.00139  -0.00139  -3.12429
   D158      -0.04747  -0.00001   0.00000   0.00136   0.00137  -0.04610
   D159       3.06715  -0.00005   0.00000   0.00340   0.00338   3.07053
   D160       3.08682   0.00000   0.00000   0.00074   0.00075   3.08757
   D161      -0.08174  -0.00004   0.00000   0.00278   0.00277  -0.07898
   D162       0.05473   0.00003   0.00000  -0.00130  -0.00128   0.05345
   D163      -3.08042   0.00002   0.00000  -0.00097  -0.00096  -3.08138
   D164      -3.05834   0.00004   0.00000  -0.00290  -0.00286  -3.06120
   D165       0.08970   0.00002   0.00000  -0.00257  -0.00254   0.08715
   D166       3.08455  -0.00004   0.00000   0.00112   0.00111   3.08567
   D167      -0.12013  -0.00010   0.00000   0.00099   0.00096  -0.11917
   D168      -0.08671  -0.00004   0.00000   0.00279   0.00276  -0.08395
   D169       2.99179  -0.00010   0.00000   0.00265   0.00260   2.99439
   D170       3.12011  -0.00000   0.00000   0.00089   0.00087   3.12098
   D171      -0.01463  -0.00000   0.00000   0.00158   0.00157  -0.01306
   D172      -0.02814   0.00001   0.00000   0.00054   0.00054  -0.02760
   D173       3.12030   0.00001   0.00000   0.00124   0.00123   3.12154
   D174      -0.03728  -0.00002   0.00000   0.00134   0.00133  -0.03595
   D175      -3.13936   0.00002   0.00000   0.00114   0.00115  -3.13822
   D176       3.09734  -0.00002   0.00000   0.00063   0.00062   3.09795
   D177      -0.00475   0.00001   0.00000   0.00044   0.00043  -0.00432
   D178       0.04093  -0.00000   0.00000  -0.00115  -0.00114   0.03978
   D179      -3.05271   0.00004   0.00000  -0.00089  -0.00087  -3.05359
   D180      -3.13968  -0.00003   0.00000  -0.00096  -0.00096  -3.14064
   D181       0.04987   0.00001   0.00000  -0.00069  -0.00069   0.04918
   D182       0.02207   0.00003   0.00000  -0.00094  -0.00093   0.02114
   D183      -3.05637   0.00009   0.00000  -0.00090  -0.00087  -3.05724
   D184       3.11531  -0.00002   0.00000  -0.00124  -0.00123   3.11408
   D185       0.03687   0.00005   0.00000  -0.00119  -0.00117   0.03570
   D186       2.37534  -0.00000   0.00000   0.00973   0.00974   2.38509
   D187      -0.78942  -0.00001   0.00000   0.00783   0.00782  -0.78160
   D188      -0.83030  -0.00007   0.00000   0.00962   0.00960  -0.82070
   D189       2.28812  -0.00008   0.00000   0.00771   0.00769   2.29580
   D190      -0.07494   0.00005   0.00000   0.00089   0.00088  -0.07407
   D191       3.05997   0.00001   0.00000  -0.00107  -0.00106   3.05890
   D192       3.08848   0.00006   0.00000   0.00269   0.00269   3.09117
   D193      -0.05980   0.00002   0.00000   0.00073   0.00075  -0.05905
   D194      -0.00801  -0.00008   0.00000  -0.00252  -0.00254  -0.01055
   D195       3.13812  -0.00005   0.00000  -0.00172  -0.00169   3.13643
   D196       3.13619  -0.00005   0.00000  -0.00229  -0.00233   3.13386
   D197      -0.00087  -0.00002   0.00000  -0.00148  -0.00147  -0.00234
         Item               Value     Threshold  Converged?
 Maximum Force            0.000942     0.000450     NO 
 RMS     Force            0.000143     0.000300     YES
 Maximum Displacement     0.252444     0.001800     NO 
 RMS     Displacement     0.046349     0.001200     NO 
 Predicted change in Energy=-4.077408D-04
 GradGradGradGradGradGradGradGradGradGradGradGradGradGradGradGradGradGrad

 Stoichiometry    C34H21BrMnN3O3
 Framework group  C1[X(C34H21BrMnN3O3)]
 Deg. of freedom   183
 Full point group                 C1      NOp   1
 Largest Abelian subgroup         C1      NOp   1
 Largest concise Abelian subgroup C1      NOp   1
                         Standard orientation:                         
 ---------------------------------------------------------------------
 Center     Atomic      Atomic             Coordinates (Angstroms)
 Number     Number       Type             X           Y           Z
 ---------------------------------------------------------------------
      1         25           0       -2.126154   -0.830871   -0.872222
      2          6           0       -3.277481   -0.142560   -2.148912
      3          8           0       -3.917630    0.242803   -3.008087
      4          6           0       -3.298603   -2.216213   -0.503784
      5          8           0       -3.969803   -3.117047   -0.317864
      6          6           0       -1.347933   -1.823308   -2.143707
      7          7           0       -0.859123   -1.573963    0.686343
      8          6           0       -0.523624   -2.072483    3.004466
      9          6           0        0.837569   -2.268132    2.790697
     10          6           0        0.433834   -1.850809    0.478472
     11          1           0       -0.959583   -2.171305    3.998889
     12          1           0        1.503443   -2.499006    3.624774
     13          7           0       -2.519892    0.948802    1.631933
     14          6           0       -1.617885    1.546336    2.043798
     15          6           0       -0.423357    2.236732    2.436690
     16          6           0        0.798478    1.557649    2.323456
     17          6           0        1.983811    2.220303    2.618923
     18          6           0       -0.462822    3.570256    2.865623
     19          1           0        0.811391    0.517240    1.998396
     20          1           0       -1.419912    4.086537    2.950817
     21          7           0       -0.894605    0.883836   -1.167927
     22          6           0       -0.637617    3.256643   -0.988774
     23          6           0        0.735285    3.146229   -1.186872
     24          1           0       -1.109073    4.226354   -0.830404
     25          6           0       -1.334788   -1.714888    1.935692
     26          1           0       -2.396085   -1.515818    2.085747
     27          6           0       -1.415752    2.107613   -0.974554
     28          1           0       -2.487986    2.164839   -0.782192
     29          1           0        2.936155    1.696263    2.519304
     30          8           0       -0.824384   -2.456925   -2.941558
     31          6           0        2.877990   -0.229752   -0.135381
     32          6           0        5.453856   -0.813514   -0.993831
     33          6           0        1.347844   -2.156386    1.493732
     34          6           0        2.788723   -2.348014    1.174906
     35          6           0        3.464969   -3.449818    1.635275
     36          6           0        4.821118   -3.694474    1.270374
     37          6           0        5.475106   -2.854315    0.415088
     38          6           0        4.822302   -1.688441   -0.100112
     39          6           0        3.479856   -1.403481    0.322195
     40          1           0        2.946526   -4.179779    2.261307
     41          1           0        5.321628   -4.583402    1.658538
     42          1           0        6.502114   -3.061930    0.106365
     43          6           0        3.457699    0.591454   -1.103712
     44          6           0        4.801141    0.308173   -1.521622
     45          6           0        5.432532    1.187668   -2.458800
     46          6           0        4.754658    2.257778   -2.969186
     47          6           0        3.394790    2.494366   -2.613357
     48          6           0        2.738770    1.688056   -1.716619
     49          1           0        6.461603    0.982922   -2.762479
     50          1           0        5.237807    2.924452   -3.685783
     51          1           0        2.856889    3.309695   -3.102725
     52          6           0        1.290062    1.888875   -1.441396
     53          1           0        1.373359    4.031462   -1.149980
     54          6           0        0.408676    0.801149   -1.457792
     55          1           0        0.783968   -0.184460   -1.728414
     56          1           0        0.778475   -1.830547   -0.554422
     57          6           0        1.948465    3.551019    3.039192
     58          6           0        0.730126    4.220331    3.167756
     59          1           0        0.709230    5.259064    3.501400
     60          1           0        2.879786    4.071157    3.271476
     61         35           0       -6.056482    0.054854    0.006289
     62          1           0        6.479129   -1.024616   -1.308218
     63          1           0        1.904939    0.047105    0.253130
 ---------------------------------------------------------------------
 Rotational constants (GHZ):           0.1082218           0.0528113           0.0494644
 Basis read from rwf:  (5D, 7F)
 There are   802 symmetry adapted cartesian basis functions of A   symmetry.
 There are   751 symmetry adapted basis functions of A   symmetry.
   751 basis functions,  1339 primitive gaussians,   802 cartesian basis functions
   165 alpha electrons      165 beta electrons
       nuclear repulsion energy      6038.2447757430 Hartrees.
 NAtoms=   63 NActive=   63 NUniq=   63 SFac= 1.00D+00 NAtFMM=   60 NAOKFM=T Big=T
 Integral buffers will be    131072 words long.
 Raffenetti 2 integral format.
 Two-electron integral symmetry is turned on.
 Nuclear repulsion after empirical dispersion term =     6038.1713335517 Hartrees.
 ------------------------------------------------------------------------------
 Polarizable Continuum Model (PCM)
 =================================
 Model                : PCM.
 Atomic radii         : UFF (Universal Force Field).
 Polarization charges : Total charges.
 Charge compensation  : None.
 Solution method      : On-the-fly selection.
 Cavity type          : Scaled VdW (van der Waals Surface) (Alpha=1.100).
 Cavity algorithm     : GePol (No added spheres)
                        Default sphere list used, NSphG=   63.
                        Lebedev-Laikov grids with approx.  5.0 points / Ang**2.
                        Smoothing algorithm: York/Karplus (Gamma=1.0000).
                        Polarization charges: spherical gaussians, with
                                              point-specific exponents (IZeta= 3).
                        Self-potential: point-specific (ISelfS= 7).
                        Self-field    : sphere-specific E.n sum rule (ISelfD= 2).
 1st derivatives      : Analytical E(r).r(x)/FMM algorithm (CHGder, D1EAlg=3).
                        Cavity 1st derivative terms included.
 Solvent              : TetraHydroFuran, Eps=   7.425700 Eps(inf)=   1.974025
 ------------------------------------------------------------------------------
 One-electron integrals computed using PRISM.
 PrsmSu:  requested number of processors reduced to:  11 ShMem   1 Linda.
 NBasis=   751 RedAO= T EigKep=  2.23D-04  NBF=   751
 NBsUse=   751 1.00D-06 EigRej= -1.00D+00 NBFU=   751
 Initial guess from the checkpoint file:  "checkpoint.chk"
 B after Tr=    -0.000000   -0.000000   -0.000000
         Rot=    0.999566   -0.029444    0.000299   -0.000610 Ang=  -3.38 deg.
 ExpMin= 3.93D-02 ExpMax= 2.77D+05 ExpMxC= 1.70D+04 IAcc=3 IRadAn=         5 AccDes= 0.00D+00
 Harris functional with IExCor= 4639 and IRadAn=       5 diagonalized for initial guess.
 HarFok:  IExCor= 4639 AccDes= 0.00D+00 IRadAn=         5 IDoV= 1 UseB2=F ITyADJ=14
 ICtDFT=  3500011 ScaDFX=  1.000000  1.000000  1.000000  1.000000
 FoFCou: FMM=F IPFlag=           0 FMFlag=      100000 FMFlg1=        2001
         NFxFlg=           0 DoJE=T BraDBF=F KetDBF=T FulRan=T
         wScrn=  0.000000 ICntrl=       500 IOpCl=  0 I1Cent=   200000004 NGrid=           0
         NMat0=    1 NMatS0=      1 NMatT0=    0 NMatD0=    1 NMtDS0=    0 NMtDT0=    0
 Petite list used in FoFCou.
 Requested convergence on RMS density matrix=1.00D-08 within 128 cycles.
 Requested convergence on MAX density matrix=1.00D-06.
 Requested convergence on             energy=1.00D-06.
 No special actions if energy rises.
 CoulSu:  requested number of processors reduced to:  11 ShMem   1 Linda.
 Inv3:  Mode=1 IEnd=    63977772.
 Iteration    1 A*A^-1 deviation from unit magnitude is 4.00D-15 for    369.
 Iteration    1 A*A^-1 deviation from orthogonality  is 2.66D-15 for   3046    430.
 Iteration    1 A^-1*A deviation from unit magnitude is 3.55D-15 for    369.
 Iteration    1 A^-1*A deviation from orthogonality  is 2.88D-14 for   3533   3510.
 CoulSu:  requested number of processors reduced to:  11 ShMem   1 Linda.
 CoulSu:  requested number of processors reduced to:  11 ShMem   1 Linda.
