 Entering Gaussian System, Link 0=g16
 Initial command:
 /home1/apps/gaussian/16rA.03/g16/l1.exe "/tmp/Gau-137592.inp" -scrdir="/tmp/"
 Entering Link 1 = /home1/apps/gaussian/16rA.03/g16/l1.exe PID=    137594.
  
 Copyright (c) 1988,1990,1992,1993,1995,1998,2003,2009,2016,
            Gaussian, Inc.  All Rights Reserved.
  
 This is part of the Gaussian(R) 16 program.  It is based on
 the Gaussian(R) 09 system (copyright 2009, Gaussian, Inc.),
 the Gaussian(R) 03 system (copyright 2003, Gaussian, Inc.),
 the Gaussian(R) 98 system (copyright 1998, Gaussian, Inc.),
 the Gaussian(R) 94 system (copyright 1995, Gaussian, Inc.),
 the Gaussian 92(TM) system (copyright 1992, Gaussian, Inc.),
 the Gaussian 90(TM) system (copyright 1990, Gaussian, Inc.),
 the Gaussian 88(TM) system (copyright 1988, Gaussian, Inc.),
 the Gaussian 86(TM) system (copyright 1986, Carnegie Mellon
 University), and the Gaussian 82(TM) system (copyright 1983,
 Carnegie Mellon University). Gaussian is a federally registered
 trademark of Gaussian, Inc.
  
 This software contains proprietary and confidential information,
 including trade secrets, belonging to Gaussian, Inc.
  
 This software is provided under written license and may be
 used, copied, transmitted, or stored only in accord with that
 written license.
  
 The following legend is applicable only to US Government
 contracts under FAR:
  
                    RESTRICTED RIGHTS LEGEND
  
 Use, reproduction and disclosure by the US Government is
 subject to restrictions as set forth in subparagraphs (a)
 and (c) of the Commercial Computer Software - Restricted
 Rights clause in FAR 52.227-19.
  
 Gaussian, Inc.
 340 Quinnipiac St., Bldg. 40, Wallingford CT 06492
  
  
 ---------------------------------------------------------------
 Warning -- This program may not be used in any manner that
 competes with the business of Gaussian, Inc. or will provide
 assistance to any competitor of Gaussian, Inc.  The licensee
 of this program is prohibited from giving any competitor of
 Gaussian, Inc. access to this program.  By using this program,
 the user acknowledges that Gaussian, Inc. is engaged in the
 business of creating and licensing software in the field of
 computational chemistry and represents and warrants to the
 licensee that it is not a competitor of Gaussian, Inc. and that
 it will not use this program in any manner prohibited above.
 ---------------------------------------------------------------
  

 Cite this work as:
 Gaussian 16, Revision A.03,
 M. J. Frisch, G. W. Trucks, H. B. Schlegel, G. E. Scuseria, 
 M. A. Robb, J. R. Cheeseman, G. Scalmani, V. Barone, 
 G. A. Petersson, H. Nakatsuji, X. Li, M. Caricato, A. V. Marenich, 
 J. Bloino, B. G. Janesko, R. Gomperts, B. Mennucci, H. P. Hratchian, 
 J. V. Ortiz, A. F. Izmaylov, J. L. Sonnenberg, D. Williams-Young, 
 F. Ding, F. Lipparini, F. Egidi, J. Goings, B. Peng, A. Petrone, 
 T. Henderson, D. Ranasinghe, V. G. Zakrzewski, J. Gao, N. Rega, 
 G. Zheng, W. Liang, M. Hada, M. Ehara, K. Toyota, R. Fukuda, 
 J. Hasegawa, M. Ishida, T. Nakajima, Y. Honda, O. Kitao, H. Nakai, 
 T. Vreven, K. Throssell, J. A. Montgomery, Jr., J. E. Peralta, 
 F. Ogliaro, M. J. Bearpark, J. J. Heyd, E. N. Brothers, K. N. Kudin, 
 V. N. Staroverov, T. A. Keith, R. Kobayashi, J. Normand, 
 K. Raghavachari, A. P. Rendell, J. C. Burant, S. S. Iyengar, 
 J. Tomasi, M. Cossi, J. M. Millam, M. Klene, C. Adamo, R. Cammi, 
 J. W. Ochterski, R. L. Martin, K. Morokuma, O. Farkas, 
 J. B. Foresman, and D. J. Fox, Gaussian, Inc., Wallingford CT, 2016.
 
 ******************************************
 Gaussian 16:  ES64L-G16RevA.03 25-Dec-2016
                17-Dec-2022 
 ******************************************
 %RWF=myrwfile
 %NoSave
 %NProcShared=12
 Will use up to   12 processors via shared memory.
 %Chk=checkpoint.chk
 %mem=120MW
 -------------------------------------------------------
 # wB97XD Gen SCRF=(Solvent=TetraHydroFuran) Freq(Numer)
 -------------------------------------------------------
 1/10=4,30=1,38=11/1,6,3;
 2/12=2,17=6,18=5,40=1/2;
 3/5=7,11=2,25=1,30=1,70=2201,71=1,72=20,74=-58/1,2,3;
 4/69=2/1;
 5/5=2,38=5,53=20,98=1/2;
 6/7=2,8=2,9=2,10=2,12=2,28=1/1;
 7//1,2,3,16;
 1/38=10/6(3);
 7/8=1,25=1,44=-1/16;
 1/10=4,30=1,38=10/3;
 99//99;
 3/5=7,6=1,11=2,25=1,30=1,70=2205,71=1,72=20,74=-58,82=7/1,2,3;
 4/5=5,16=3,69=2/1;
 5/5=2,38=5,53=20,98=1/2;
 6/7=2,8=2,9=2,10=2,12=2,28=1/1;
 7/7=1/1,2,3,16;
 1/38=10/6(-5);
 7/8=1,25=1,44=-1/16;
 1/10=4,30=1,38=10/3;
 99//99;
 ----------------
 TS Freq Analysis
 ----------------
 Symbolic Z-matrix:
 Charge =  0 Multiplicity = 1
 Mn                    2.24428  -1.55798  -1.06055 
 C                     3.00454  -3.23619  -0.98306 
 O                     3.47056  -4.27654  -0.97403 
 C                     3.72714  -0.93935  -1.98419 
 O                     4.62303  -0.59869  -2.59788 
 C                     1.44993  -1.98019  -2.61675 
 N                     1.52144   0.41969  -0.98365 
 C                     1.93229   2.70293  -0.3886 
 C                     0.62223   3.04822  -0.70712 
 C                     0.28326   0.77315  -1.34079 
 H                     2.64838   3.43863  -0.02101 
 H                     0.26554   4.07259  -0.57965 
 N                     2.60705  -0.5368    1.93258 
 C                     1.70925   0.01704   2.41027 
 C                     0.55201   0.67922   2.94503 
 C                    -0.42673  -0.07022   3.61412 
 C                    -1.57139   0.56392   4.08458 
 C                     0.39125   2.06006   2.76394 
 H                    -0.28587  -1.14145   3.76021 
 H                     1.16637   2.63579   2.25797 
 N                     0.65925  -2.27837   0.1538 
 C                    -0.02776  -3.41482   2.14883 
 C                    -1.36507  -3.13896   1.87345 
 H                     0.26419  -3.96678   3.04232 
 C                     2.33894   1.38307  -0.51796 
 H                     3.36112   1.10924  -0.23574 
 C                     0.95001  -2.95454   1.28061 
 H                     2.00464  -3.12394   1.49968 
 H                    -2.33725  -0.01613   4.60213 
 O                     0.91411  -2.23309  -3.59489 
 S                    -2.40158   0.59456   0.50097 
 S                    -5.39874   1.16994  -0.41741 
 C                    -0.23589   2.0576   -1.18517 
 C                    -1.65576   2.32632  -1.53991 
 C                    -1.95108   3.26552  -2.53395 
 C                    -3.2671    3.51819  -2.91138 
 C                    -4.31208   2.83412  -2.29808 
 C                    -4.03921   1.92522  -1.27307 
 C                    -2.71642   1.66567  -0.88853 
 H                    -1.13013   3.7863   -3.03103 
 H                    -3.47959   4.24211  -3.69979 
 H                    -5.34543   3.0103   -2.60309 
 C                    -3.49837  -0.76416   0.14374 
 C                    -4.81984  -0.49876  -0.2428 
 C                    -5.72442  -1.54542  -0.43652 
 C                    -5.32431  -2.85736  -0.20352 
 C                    -4.01382  -3.12861   0.17949 
 C                    -3.08152  -2.09687   0.33634 
 H                    -6.74387  -1.3253   -0.75915 
 H                    -6.0346   -3.67488  -0.33729 
 H                    -3.69409  -4.16062   0.33809 
 C                    -1.68206  -2.43579   0.71213 
 H                    -2.15333  -3.45854   2.55839 
 C                    -0.62923  -2.06723  -0.12624 
 H                    -0.86311  -1.59138  -1.07528 
 H                    -0.3453    0.00978  -1.79424 
 C                    -1.74012   1.9357    3.8921 
 C                    -0.76018   2.68167   3.2366 
 H                    -0.89145   3.75555   3.09379 
 H                    -2.64351   2.42796   4.25729 
 Br                    5.8471    1.84196   0.53878 
 
 Numerical evaluation of force-constants.
 Nuclear step= 0.001000 Angstroms, electric field step= 0.000333 atomic units, NStep=1.

 GradGradGradGradGradGradGradGradGradGradGradGradGradGradGradGradGradGrad
 Berny optimization.
 Initialization pass.
 Trust Radius=3.00D-01 FncErr=1.00D-07 GrdErr=1.00D-07 EigMax=2.50D+02 EigMin=1.00D-04
 Number of steps in this run=      2 maximum allowed number of steps=      2.
 GradGradGradGradGradGradGradGradGradGradGradGradGradGradGradGradGradGrad

 Stoichiometry    C32H19BrMnN3O3S2
 Framework group  C1[X(C32H19BrMnN3O3S2)]
 Deg. of freedom   177
 Full point group                 C1      NOp   1
 Largest Abelian subgroup         C1      NOp   1
 Largest concise Abelian subgroup C1      NOp   1
                         Standard orientation:                         
 ---------------------------------------------------------------------
 Center     Atomic      Atomic             Coordinates (Angstroms)
 Number     Number       Type             X           Y           Z
 ---------------------------------------------------------------------
      1         25           0       -2.244279    1.557984   -1.060549
      2          6           0       -3.004537    3.236188   -0.983062
      3          8           0       -3.470561    4.276539   -0.974029
      4          6           0       -3.727144    0.939351   -1.984186
      5          8           0       -4.623030    0.598685   -2.597882
      6          6           0       -1.449932    1.980193   -2.616750
      7          7           0       -1.521442   -0.419691   -0.983645
      8          6           0       -1.932286   -2.702931   -0.388603
      9          6           0       -0.622226   -3.048224   -0.707124
     10          6           0       -0.283263   -0.773151   -1.340789
     11          1           0       -2.648380   -3.438625   -0.021008
     12          1           0       -0.265538   -4.072590   -0.579646
     13          7           0       -2.607046    0.536801    1.932576
     14          6           0       -1.709246   -0.017042    2.410269
     15          6           0       -0.552012   -0.679223    2.945026
     16          6           0        0.426725    0.070221    3.614122
     17          6           0        1.571393   -0.563922    4.084576
     18          6           0       -0.391252   -2.060056    2.763937
     19          1           0        0.285869    1.141449    3.760212
     20          1           0       -1.166370   -2.635791    2.257973
     21          7           0       -0.659246    2.278372    0.153795
     22          6           0        0.027763    3.414822    2.148831
     23          6           0        1.365066    3.138961    1.873452
     24          1           0       -0.264187    3.966782    3.042318
     25          6           0       -2.338941   -1.383067   -0.517964
     26          1           0       -3.361117   -1.109238   -0.235740
     27          6           0       -0.950007    2.954538    1.280607
     28          1           0       -2.004644    3.123938    1.499684
     29          1           0        2.337247    0.016126    4.602133
     30          8           0       -0.914113    2.233089   -3.594889
     31         16           0        2.401580   -0.594556    0.500972
     32         16           0        5.398741   -1.169935   -0.417413
     33          6           0        0.235885   -2.057603   -1.185172
     34          6           0        1.655761   -2.326324   -1.539910
     35          6           0        1.951075   -3.265518   -2.533952
     36          6           0        3.267095   -3.518191   -2.911381
     37          6           0        4.312083   -2.834115   -2.298077
     38          6           0        4.039210   -1.925222   -1.273071
     39          6           0        2.716418   -1.665674   -0.888534
     40          1           0        1.130125   -3.786303   -3.031031
     41          1           0        3.479592   -4.242111   -3.699785
     42          1           0        5.345425   -3.010298   -2.603093
     43          6           0        3.498367    0.764162    0.143738
     44          6           0        4.819836    0.498757   -0.242803
     45          6           0        5.724422    1.545422   -0.436519
     46          6           0        5.324311    2.857357   -0.203520
     47          6           0        4.013816    3.128612    0.179490
     48          6           0        3.081515    2.096868    0.336337
     49          1           0        6.743873    1.325304   -0.759149
     50          1           0        6.034598    3.674875   -0.337294
     51          1           0        3.694090    4.160619    0.338092
     52          6           0        1.682064    2.435788    0.712128
     53          1           0        2.153330    3.458543    2.558391
     54          6           0        0.629230    2.067231   -0.126236
     55          1           0        0.863109    1.591378   -1.075279
     56          1           0        0.345301   -0.009782   -1.794236
     57          6           0        1.740123   -1.935699    3.892098
     58          6           0        0.760179   -2.681666    3.236603
     59          1           0        0.891446   -3.755546    3.093794
     60          1           0        2.643510   -2.427964    4.257287
     61         35           0       -5.847103   -1.841955    0.538775
 ---------------------------------------------------------------------
 Rotational constants (GHZ):           0.0969276           0.0510982           0.0468799
 General basis read from cards:  (5D, 7F)
 There are   800 symmetry adapted cartesian basis functions of A   symmetry.
 There are   749 symmetry adapted basis functions of A   symmetry.
   749 basis functions,  1349 primitive gaussians,   800 cartesian basis functions
   174 alpha electrons      174 beta electrons
       nuclear repulsion energy      6625.1666915634 Hartrees.
 NAtoms=   61 NActive=   61 NUniq=   61 SFac= 1.00D+00 NAtFMM=   60 NAOKFM=T Big=T
 Integral buffers will be    131072 words long.
 Raffenetti 2 integral format.
 Two-electron integral symmetry is turned on.
 Nuclear repulsion after empirical dispersion term =     6625.0972539057 Hartrees.
 ------------------------------------------------------------------------------
 Polarizable Continuum Model (PCM)
 =================================
 Model                : PCM.
 Atomic radii         : UFF (Universal Force Field).
 Polarization charges : Total charges.
 Charge compensation  : None.
 Solution method      : On-the-fly selection.
 Cavity type          : Scaled VdW (van der Waals Surface) (Alpha=1.100).
 Cavity algorithm     : GePol (No added spheres)
                        Default sphere list used, NSphG=   61.
                        Lebedev-Laikov grids with approx.  5.0 points / Ang**2.
                        Smoothing algorithm: York/Karplus (Gamma=1.0000).
                        Polarization charges: spherical gaussians, with
                                              point-specific exponents (IZeta= 3).
                        Self-potential: point-specific (ISelfS= 7).
                        Self-field    : sphere-specific E.n sum rule (ISelfD= 2).
 1st derivatives      : Analytical E(r).r(x)/FMM algorithm (CHGder, D1EAlg=3).
                        Cavity 1st derivative terms included.
 Solvent              : TetraHydroFuran, Eps=   7.425700 Eps(inf)=   1.974025
 ------------------------------------------------------------------------------
 One-electron integrals computed using PRISM.
 NBasis=   749 RedAO= T EigKep=  2.25D-04  NBF=   749
 NBsUse=   749 1.00D-06 EigRej= -1.00D+00 NBFU=   749
 ExpMin= 3.93D-02 ExpMax= 2.77D+05 ExpMxC= 1.70D+04 IAcc=3 IRadAn=         5 AccDes= 0.00D+00
 Harris functional with IExCor= 4639 and IRadAn=       5 diagonalized for initial guess.
 HarFok:  IExCor= 4639 AccDes= 0.00D+00 IRadAn=         5 IDoV= 1 UseB2=F ITyADJ=14
 ICtDFT=  3500011 ScaDFX=  1.000000  1.000000  1.000000  1.000000
 FoFCou: FMM=F IPFlag=           0 FMFlag=      100000 FMFlg1=        2001
         NFxFlg=           0 DoJE=T BraDBF=F KetDBF=T FulRan=T
         wScrn=  0.000000 ICntrl=       500 IOpCl=  0 I1Cent=   200000004 NGrid=           0
         NMat0=    1 NMatS0=      1 NMatT0=    0 NMatD0=    1 NMtDS0=    0 NMtDT0=    0
 Petite list used in FoFCou.
 Requested convergence on RMS density matrix=1.00D-08 within 128 cycles.
 Requested convergence on MAX density matrix=1.00D-06.
 Requested convergence on             energy=1.00D-06.
 No special actions if energy rises.
 Inv3:  Mode=1 IEnd=    68516523.
 Iteration    1 A*A^-1 deviation from unit magnitude is 3.11D-15 for    755.
 Iteration    1 A*A^-1 deviation from orthogonality  is 2.11D-15 for   3366   2007.
 Iteration    1 A^-1*A deviation from unit magnitude is 3.22D-15 for   4435.
 Iteration    1 A^-1*A deviation from orthogonality  is 4.64D-14 for   4177   4127.
 Restarting incremental Fock formation.
 Error on total polarization charges =  0.02602
 SCF Done:  E(RwB97XD) =  -6140.23096125     A.U. after   21 cycles
            NFock= 21  Conv=0.67D-08     -V/T= 2.0038

 **********************************************************************

            Population analysis using the SCF density.

 **********************************************************************

 Orbital symmetries:
       Occupied  (A) (A) (A) (A) (A) (A) (A) (A) (A) (A) (A) (A)
                 (A) (A) (A) (A) (A) (A) (A) (A) (A) (A) (A) (A)
                 (A) (A) (A) (A) (A) (A) (A) (A) (A) (A) (A) (A)
                 (A) (A) (A) (A) (A) (A) (A) (A) (A) (A) (A) (A)
                 (A) (A) (A) (A) (A) (A) (A) (A) (A) (A) (A) (A)
                 (A) (A) (A) (A) (A) (A) (A) (A) (A) (A) (A) (A)
                 (A) (A) (A) (A) (A) (A) (A) (A) (A) (A) (A) (A)
                 (A) (A) (A) (A) (A) (A) (A) (A) (A) (A) (A) (A)
                 (A) (A) (A) (A) (A) (A) (A) (A) (A) (A) (A) (A)
                 (A) (A) (A) (A) (A) (A) (A) (A) (A) (A) (A) (A)
                 (A) (A) (A) (A) (A) (A) (A) (A) (A) (A) (A) (A)
                 (A) (A) (A) (A) (A) (A) (A) (A) (A) (A) (A) (A)
                 (A) (A) (A) (A) (A) (A) (A) (A) (A) (A) (A) (A)
                 (A) (A) (A) (A) (A) (A) (A) (A) (A) (A) (A) (A)
                 (A) (A) (A) (A) (A) (A)
       Virtual   (A) (A) (A) (A) (A) (A) (A) (A) (A) (A) (A) (A)
                 (A) (A) (A) (A) (A) (A) (A) (A) (A) (A) (A) (A)
                 (A) (A) (A) (A) (A) (A) (A) (A) (A) (A) (A) (A)
                 (A) (A) (A) (A) (A) (A) (A) (A) (A) (A) (A) (A)
                 (A) (A) (A) (A) (A) (A) (A) (A) (A) (A) (A) (A)
                 (A) (A) (A) (A) (A) (A) (A) (A) (A) (A) (A) (A)
                 (A) (A) (A) (A) (A) (A) (A) (A) (A) (A) (A) (A)
                 (A) (A) (A) (A) (A) (A) (A) (A) (A) (A) (A) (A)
                 (A) (A) (A) (A) (A) (A) (A) (A) (A) (A) (A) (A)
                 (A) (A) (A) (A) (A) (A) (A) (A) (A) (A) (A) (A)
                 (A) (A) (A) (A) (A) (A) (A) (A) (A) (A) (A) (A)
                 (A) (A) (A) (A) (A) (A) (A) (A) (A) (A) (A) (A)
                 (A) (A) (A) (A) (A) (A) (A) (A) (A) (A) (A) (A)
                 (A) (A) (A) (A) (A) (A) (A) (A) (A) (A) (A) (A)
                 (A) (A) (A) (A) (A) (A) (A) (A) (A) (A) (A) (A)
                 (A) (A) (A) (A) (A) (A) (A) (A) (A) (A) (A) (A)
                 (A) (A) (A) (A) (A) (A) (A) (A) (A) (A) (A) (A)
                 (A) (A) (A) (A) (A) (A) (A) (A) (A) (A) (A) (A)
                 (A) (A) (A) (A) (A) (A) (A) (A) (A) (A) (A) (A)
                 (A) (A) (A) (A) (A) (A) (A) (A) (A) (A) (A) (A)
                 (A) (A) (A) (A) (A) (A) (A) (A) (A) (A) (A) (A)
                 (A) (A) (A) (A) (A) (A) (A) (A) (A) (A) (A) (A)
                 (A) (A) (A) (A) (A) (A) (A) (A) (A) (A) (A) (A)
                 (A) (A) (A) (A) (A) (A) (A) (A) (A) (A) (A) (A)
                 (A) (A) (A) (A) (A) (A) (A) (A) (A) (A) (A) (A)
                 (A) (A) (A) (A) (A) (A) (A) (A) (A) (A) (A) (A)
                 (A) (A) (A) (A) (A) (A) (A) (A) (A) (A) (A) (A)
                 (A) (A) (A) (A) (A) (A) (A) (A) (A) (A) (A) (A)
                 (A) (A) (A) (A) (A) (A) (A) (A) (A) (A) (A) (A)
                 (A) (A) (A) (A) (A) (A) (A) (A) (A) (A) (A) (A)
                 (A) (A) (A) (A) (A) (A) (A) (A) (A) (A) (A) (A)
                 (A) (A) (A) (A) (A) (A) (A) (A) (A) (A) (A) (A)
                 (A) (A) (A) (A) (A) (A) (A) (A) (A) (A) (A) (A)
                 (A) (A) (A) (A) (A) (A) (A) (A) (A) (A) (A) (A)
                 (A) (A) (A) (A) (A) (A) (A) (A) (A) (A) (A) (A)
                 (A) (A) (A) (A) (A) (A) (A) (A) (A) (A) (A) (A)
                 (A) (A) (A) (A) (A) (A) (A) (A) (A) (A) (A) (A)
                 (A) (A) (A) (A) (A) (A) (A) (A) (A) (A) (A) (A)
                 (A) (A) (A) (A) (A) (A) (A) (A) (A) (A) (A) (A)
                 (A) (A) (A) (A) (A) (A) (A) (A) (A) (A) (A) (A)
                 (A) (A) (A) (A) (A) (A) (A) (A) (A) (A) (A) (A)
                 (A) (A) (A) (A) (A) (A) (A) (A) (A) (A) (A) (A)
                 (A) (A) (A) (A) (A) (A) (A) (A) (A) (A) (A) (A)
                 (A) (A) (A) (A) (A) (A) (A) (A) (A) (A) (A) (A)
                 (A) (A) (A) (A) (A) (A) (A) (A) (A) (A) (A) (A)
                 (A) (A) (A) (A) (A) (A) (A) (A) (A) (A) (A) (A)
                 (A) (A) (A) (A) (A) (A) (A) (A) (A) (A) (A) (A)
                 (A) (A) (A) (A) (A) (A) (A) (A) (A) (A) (A)
 The electronic state is 1-A.
 Alpha  occ. eigenvalues -- -482.95274-235.72055 -89.04536 -89.04091 -62.53342
 Alpha  occ. eigenvalues --  -56.33893 -56.33892 -56.33891 -27.48762 -23.54725
 Alpha  occ. eigenvalues --  -23.54308 -23.54256 -19.35890 -19.35743 -19.35553
 Alpha  occ. eigenvalues --  -14.51751 -14.51205 -14.46906 -10.43294 -10.43207
 Alpha  occ. eigenvalues --  -10.43151 -10.37940 -10.37528 -10.37465 -10.36705
 Alpha  occ. eigenvalues --  -10.36397 -10.36273 -10.36251 -10.35967 -10.35873
 Alpha  occ. eigenvalues --  -10.35784 -10.35367 -10.35316 -10.34886 -10.34818
 Alpha  occ. eigenvalues --  -10.34720 -10.34665 -10.34122 -10.33604 -10.33514
 Alpha  occ. eigenvalues --  -10.33194 -10.33153 -10.33032 -10.32999 -10.32799
 Alpha  occ. eigenvalues --  -10.32783 -10.32738 -10.32598 -10.32517 -10.32473
 Alpha  occ. eigenvalues --   -8.70110  -8.09548  -8.09237  -6.51786  -6.51784
 Alpha  occ. eigenvalues --   -6.51780  -6.05014  -6.04697  -6.04622  -6.04302
 Alpha  occ. eigenvalues --   -6.03987  -6.03671  -3.28234  -2.62295  -2.62294
 Alpha  occ. eigenvalues --   -2.62290  -2.62289  -2.62288  -2.14136  -2.13168
 Alpha  occ. eigenvalues --   -2.13036  -1.24869  -1.24718  -1.24483  -1.09363
 Alpha  occ. eigenvalues --   -1.08623  -1.02442  -1.01582  -0.99216  -0.98078
 Alpha  occ. eigenvalues --   -0.95323  -0.94128  -0.92543  -0.91840  -0.90419
 Alpha  occ. eigenvalues --   -0.88960  -0.88354  -0.86888  -0.86611  -0.85994
 Alpha  occ. eigenvalues --   -0.83388  -0.79267  -0.76915  -0.76365  -0.76235
 Alpha  occ. eigenvalues --   -0.75576  -0.74968  -0.74415  -0.72791  -0.72229
 Alpha  occ. eigenvalues --   -0.71061  -0.70412  -0.69290  -0.67524  -0.66320
 Alpha  occ. eigenvalues --   -0.66129  -0.65994  -0.65700  -0.64995  -0.62868
 Alpha  occ. eigenvalues --   -0.62405  -0.61612  -0.60465  -0.59532  -0.59414
 Alpha  occ. eigenvalues --   -0.58657  -0.58201  -0.57944  -0.57840  -0.57743
 Alpha  occ. eigenvalues --   -0.57561  -0.57459  -0.57336  -0.56434  -0.56253
 Alpha  occ. eigenvalues --   -0.55610  -0.55176  -0.55018  -0.54838  -0.54367
 Alpha  occ. eigenvalues --   -0.53777  -0.53549  -0.53262  -0.53050  -0.52988
 Alpha  occ. eigenvalues --   -0.52770  -0.52510  -0.51950  -0.51926  -0.50948
 Alpha  occ. eigenvalues --   -0.49988  -0.49573  -0.48878  -0.48693  -0.48410
 Alpha  occ. eigenvalues --   -0.47954  -0.46349  -0.46238  -0.45914  -0.45812
 Alpha  occ. eigenvalues --   -0.44849  -0.44771  -0.44034  -0.43757  -0.42954
 Alpha  occ. eigenvalues --   -0.42359  -0.41312  -0.40788  -0.40347  -0.38925
 Alpha  occ. eigenvalues --   -0.38039  -0.37431  -0.35993  -0.35739  -0.35224
 Alpha  occ. eigenvalues --   -0.34727  -0.34487  -0.34275  -0.33381  -0.31674
 Alpha  occ. eigenvalues --   -0.30543  -0.29606  -0.29565  -0.29543
 Alpha virt. eigenvalues --   -0.02508  -0.00512  -0.00122   0.00236   0.00647
 Alpha virt. eigenvalues --    0.01212   0.01913   0.02828   0.03132   0.03463
 Alpha virt. eigenvalues --    0.03689   0.04094   0.04491   0.05581   0.05819
 Alpha virt. eigenvalues --    0.08208   0.08605   0.08738   0.08856   0.09358
 Alpha virt. eigenvalues --    0.10019   0.10630   0.12159   0.12467   0.13375
 Alpha virt. eigenvalues --    0.13504   0.13894   0.14354   0.14412   0.15198
 Alpha virt. eigenvalues --    0.15844   0.15997   0.16216   0.17147   0.17577
 Alpha virt. eigenvalues --    0.18171   0.18310   0.18731   0.18902   0.19422
 Alpha virt. eigenvalues --    0.19708   0.20135   0.20949   0.21042   0.21420
 Alpha virt. eigenvalues --    0.21650   0.21886   0.22412   0.23095   0.23245
 Alpha virt. eigenvalues --    0.23580   0.23701   0.24057   0.24594   0.25250
 Alpha virt. eigenvalues --    0.25882   0.26614   0.26870   0.27641   0.28156
 Alpha virt. eigenvalues --    0.28423   0.28819   0.29450   0.30431   0.31286
 Alpha virt. eigenvalues --    0.31866   0.32096   0.32295   0.32645   0.32921
 Alpha virt. eigenvalues --    0.33234   0.33413   0.34225   0.34821   0.34831
 Alpha virt. eigenvalues --    0.35323   0.35687   0.36117   0.36476   0.36864
 Alpha virt. eigenvalues --    0.37373   0.37543   0.37880   0.38575   0.38730
 Alpha virt. eigenvalues --    0.39147   0.39446   0.39808   0.40482   0.40928
 Alpha virt. eigenvalues --    0.41549   0.42054   0.42532   0.42692   0.43283
 Alpha virt. eigenvalues --    0.44392   0.44629   0.45784   0.46290   0.46588
 Alpha virt. eigenvalues --    0.47373   0.47499   0.47999   0.48202   0.48686
 Alpha virt. eigenvalues --    0.49251   0.49425   0.49710   0.50804   0.50998
 Alpha virt. eigenvalues --    0.51072   0.51622   0.52106   0.52223   0.52655
 Alpha virt. eigenvalues --    0.53007   0.53430   0.53700   0.53915   0.54335
 Alpha virt. eigenvalues --    0.54650   0.54794   0.55074   0.55417   0.55630
 Alpha virt. eigenvalues --    0.56452   0.56670   0.56969   0.57336   0.57969
 Alpha virt. eigenvalues --    0.58473   0.58775   0.59981   0.60265   0.60495
 Alpha virt. eigenvalues --    0.60709   0.60985   0.61106   0.61984   0.62670
 Alpha virt. eigenvalues --    0.63621   0.63810   0.64164   0.64593   0.64866
 Alpha virt. eigenvalues --    0.65164   0.65317   0.65927   0.66179   0.66456
 Alpha virt. eigenvalues --    0.66592   0.67163   0.67515   0.68571   0.69031
 Alpha virt. eigenvalues --    0.69122   0.69719   0.69869   0.70715   0.70891
 Alpha virt. eigenvalues --    0.71163   0.71430   0.71631   0.71745   0.71882
 Alpha virt. eigenvalues --    0.72190   0.72496   0.72865   0.73033   0.73209
 Alpha virt. eigenvalues --    0.73610   0.73949   0.74119   0.74500   0.75106
 Alpha virt. eigenvalues --    0.75420   0.75620   0.76065   0.76351   0.76811
 Alpha virt. eigenvalues --    0.77311   0.77499   0.77678   0.77772   0.78095
 Alpha virt. eigenvalues --    0.78189   0.79063   0.79462   0.79649   0.80219
 Alpha virt. eigenvalues --    0.80395   0.80656   0.81120   0.81378   0.82178
 Alpha virt. eigenvalues --    0.82229   0.82552   0.82729   0.83165   0.83486
 Alpha virt. eigenvalues --    0.83690   0.83765   0.84155   0.84360   0.84484
 Alpha virt. eigenvalues --    0.84613   0.85256   0.85656   0.85879   0.85972
 Alpha virt. eigenvalues --    0.86056   0.86475   0.87037   0.87340   0.87460
 Alpha virt. eigenvalues --    0.87917   0.88306   0.88744   0.89196   0.89260
 Alpha virt. eigenvalues --    0.89623   0.90062   0.90497   0.90792   0.91022
 Alpha virt. eigenvalues --    0.91247   0.92241   0.92356   0.92596   0.93381
 Alpha virt. eigenvalues --    0.93831   0.94101   0.94702   0.95287   0.95859
 Alpha virt. eigenvalues --    0.96580   0.97206   0.97389   0.98976   0.99719
 Alpha virt. eigenvalues --    0.99996   1.00923   1.01637   1.02535   1.02782
 Alpha virt. eigenvalues --    1.03161   1.04267   1.05067   1.05910   1.06497
 Alpha virt. eigenvalues --    1.07188   1.07704   1.09125   1.09360   1.10365
 Alpha virt. eigenvalues --    1.11020   1.11692   1.11981   1.12274   1.13056
 Alpha virt. eigenvalues --    1.13363   1.13460   1.14562   1.15282   1.15864
 Alpha virt. eigenvalues --    1.16354   1.16548   1.17676   1.19461   1.19893
 Alpha virt. eigenvalues --    1.20159   1.21352   1.22145   1.22668   1.23512
 Alpha virt. eigenvalues --    1.23944   1.24440   1.25048   1.25723   1.26910
 Alpha virt. eigenvalues --    1.27365   1.27958   1.28112   1.28900   1.29007
 Alpha virt. eigenvalues --    1.29510   1.29624   1.29980   1.30280   1.31131
 Alpha virt. eigenvalues --    1.31904   1.32440   1.32802   1.33066   1.34343
 Alpha virt. eigenvalues --    1.34836   1.35096   1.35687   1.35925   1.36018
 Alpha virt. eigenvalues --    1.36432   1.36569   1.37066   1.37270   1.37679
 Alpha virt. eigenvalues --    1.38601   1.39206   1.39459   1.40422   1.41316
 Alpha virt. eigenvalues --    1.42247   1.44172   1.45976   1.47449   1.48014
 Alpha virt. eigenvalues --    1.48784   1.49834   1.51049   1.52913   1.54597
 Alpha virt. eigenvalues --    1.56330   1.56846   1.57911   1.58459   1.60191
 Alpha virt. eigenvalues --    1.60985   1.61520   1.62727   1.63578   1.64718
 Alpha virt. eigenvalues --    1.64817   1.65979   1.67768   1.68391   1.68787
 Alpha virt. eigenvalues --    1.69302   1.70028   1.70307   1.70857   1.71199
 Alpha virt. eigenvalues --    1.72935   1.73120   1.73303   1.73915   1.74794
 Alpha virt. eigenvalues --    1.75122   1.75664   1.76438   1.76726   1.76738
 Alpha virt. eigenvalues --    1.77163   1.77674   1.78139   1.78374   1.79132
 Alpha virt. eigenvalues --    1.79407   1.79821   1.80176   1.80363   1.80583
 Alpha virt. eigenvalues --    1.81027   1.81454   1.81727   1.82467   1.82610
 Alpha virt. eigenvalues --    1.83673   1.83912   1.84134   1.84653   1.85654
 Alpha virt. eigenvalues --    1.86011   1.86326   1.86722   1.87280   1.87629
 Alpha virt. eigenvalues --    1.88025   1.88586   1.88808   1.89012   1.89531
 Alpha virt. eigenvalues --    1.90075   1.90682   1.91020   1.91811   1.92263
 Alpha virt. eigenvalues --    1.92635   1.93486   1.93761   1.94787   1.95022
 Alpha virt. eigenvalues --    1.96312   1.97782   1.98188   1.99061   1.99677
 Alpha virt. eigenvalues --    2.00179   2.00468   2.01060   2.01631   2.01962
 Alpha virt. eigenvalues --    2.02511   2.02718   2.02898   2.03649   2.04144
 Alpha virt. eigenvalues --    2.04890   2.05292   2.06258   2.06402   2.06604
 Alpha virt. eigenvalues --    2.06730   2.07431   2.08574   2.08904   2.09920
 Alpha virt. eigenvalues --    2.10527   2.10958   2.11847   2.12123   2.12315
 Alpha virt. eigenvalues --    2.14515   2.16467   2.17311   2.17838   2.18354
 Alpha virt. eigenvalues --    2.18565   2.19160   2.19437   2.21120   2.22083
 Alpha virt. eigenvalues --    2.22458   2.23063   2.23475   2.23666   2.24743
 Alpha virt. eigenvalues --    2.26501   2.26832   2.29257   2.29643   2.30466
 Alpha virt. eigenvalues --    2.30919   2.31103   2.31518   2.31809   2.32464
 Alpha virt. eigenvalues --    2.33626   2.34270   2.35114   2.35529   2.36174
 Alpha virt. eigenvalues --    2.36722   2.37118   2.37539   2.38241   2.38470
 Alpha virt. eigenvalues --    2.38556   2.39065   2.39311   2.39550   2.40286
 Alpha virt. eigenvalues --    2.40842   2.41741   2.42260   2.43575   2.45245
 Alpha virt. eigenvalues --    2.46178   2.46945   2.48625   2.49081   2.49374
 Alpha virt. eigenvalues --    2.52476   2.53431   2.54802   2.56184   2.57969
 Alpha virt. eigenvalues --    2.59190   2.59300   2.60146   2.62457   2.64985
 Alpha virt. eigenvalues --    2.66565   2.66799   2.67533   2.68004   2.68222
 Alpha virt. eigenvalues --    2.68339   2.68505   2.68570   2.68770   2.68859
 Alpha virt. eigenvalues --    2.69022   2.69352   2.69485   2.69550   2.70847
 Alpha virt. eigenvalues --    2.72008   2.72584   2.75860   2.76337   2.77827
 Alpha virt. eigenvalues --    2.78549   2.80061   2.80283   2.81001   2.82228
 Alpha virt. eigenvalues --    2.82595   2.82713   2.83709   2.84364   2.85059
 Alpha virt. eigenvalues --    2.86375   2.86876   2.88116   2.88864   2.90965
 Alpha virt. eigenvalues --    2.92468   2.92644   2.95540   2.98094   2.98706
 Alpha virt. eigenvalues --    2.99092   3.01279   3.03005   3.03909   3.04161
 Alpha virt. eigenvalues --    3.04756   3.07151   3.08105   3.08634   3.10224
 Alpha virt. eigenvalues --    3.10518   3.14347   3.15656   3.15915   3.19064
 Alpha virt. eigenvalues --    3.19936   3.21073   3.22029   3.22623   3.22733
 Alpha virt. eigenvalues --    3.23227   3.23872   3.28566   3.28993   3.31229
 Alpha virt. eigenvalues --    3.36829   3.38740   3.39180   3.42249   3.44365
 Alpha virt. eigenvalues --    3.45736   3.49818   3.51895   3.54034   3.57074
 Alpha virt. eigenvalues --    3.58167   3.59552   3.61042   3.61543   3.61809
 Alpha virt. eigenvalues --    3.62138   3.64034   3.69389   3.70297   3.74854
 Alpha virt. eigenvalues --    3.75189   3.76146   3.76750   3.78037   3.78850
 Alpha virt. eigenvalues --    3.80302   3.90267   3.93519   4.02176   4.05725
 Electronic spatial extent (au):  <R**2>=          23960.2003
 Charge=             -0.0000 electrons
 Dipole moment (field-independent basis, Debye):
    X=             28.7833    Y=              8.4250    Z=             -0.3507  Tot=             29.9930
 Quadrupole moment (field-independent basis, Debye-Ang):
   XX=           -404.0793   YY=           -239.0132   ZZ=           -255.3091
   XY=            -38.8080   XZ=             16.4775   YZ=             21.8750
 Traceless Quadrupole moment (field-independent basis, Debye-Ang):
   XX=           -104.6121   YY=             60.4540   ZZ=             44.1581
   XY=            -38.8080   XZ=             16.4775   YZ=             21.8750
 Octapole moment (field-independent basis, Debye-Ang**2):
  XXX=            884.0156  YYY=             14.7452  ZZZ=             17.1863  XYY=             95.4323
  XXY=            342.5142  XXZ=           -130.6134  XZZ=              2.7226  YZZ=             -6.2036
  YYZ=              5.8616  XYZ=              4.4431
 Hexadecapole moment (field-independent basis, Debye-Ang**3):
 XXXX=         -22198.7334 YYYY=          -7243.5453 ZZZZ=          -5638.4499 XXXY=          -1354.4839
 XXXZ=            351.2039 YYYX=             57.4269 YYYZ=            194.4515 ZZZX=            176.5181
 ZZZY=            138.3134 XXYY=          -4373.9992 XXZZ=          -3842.4794 YYZZ=          -1954.6472
 XXYZ=            211.0954 YYXZ=            -24.1895 ZZXY=           -166.0444
 N-N= 6.625097253906D+03 E-N=-2.778699384619D+04  KE= 6.117234376655D+03
 D1PCM: PCM CHGder 1st derivatives, ID1Alg=3 FixD1E=F DoIter=F DoCFld=F I1PDM=0.
 Calling FoFJK, ICntrl=      2127 FMM=T ISym2X=0 I1Cent= 0 IOpClX= 0 NMat=1 NMatS=1 NMatT=0.
 ***** Axes restored to original set *****
 -------------------------------------------------------------------
 Center     Atomic                   Forces (Hartrees/Bohr)
 Number     Number              X              Y              Z
 -------------------------------------------------------------------
      1       25          -0.000000534    0.000003007   -0.000018973
      2        6          -0.000015239   -0.000001051    0.000011055
      3        8           0.000013275    0.000003637   -0.000003088
      4        6           0.000003131   -0.000002221   -0.000003510
      5        8          -0.000001819    0.000000336   -0.000000422
      6        6          -0.000001289    0.000003898   -0.000004011
      7        7          -0.000007357   -0.000002483    0.000002852
      8        6          -0.000000830    0.000000922    0.000002723
      9        6           0.000002675    0.000000491   -0.000005743
     10        6          -0.000001392    0.000002982    0.000005249
     11        1          -0.000001997    0.000001686    0.000001466
     12        1           0.000000311    0.000000374    0.000004368
     13        7           0.000005345   -0.000009938    0.000009270
     14        6           0.000000202   -0.000001809   -0.000002494
     15        6           0.000006373    0.000008331   -0.000001949
     16        6          -0.000002713   -0.000004258    0.000003805
     17        6          -0.000000477   -0.000003458    0.000002093
     18        6           0.000012892   -0.000029224   -0.000006667
     19        1           0.000001049   -0.000002144    0.000001138
     20        1          -0.000012469    0.000008720    0.000011316
     21        7          -0.000003331   -0.000000264   -0.000006724
     22        6          -0.000002545   -0.000004169   -0.000003486
     23        6           0.000000338   -0.000002813   -0.000004605
     24        1           0.000000027    0.000014902   -0.000002285
     25        6           0.000003999   -0.000002744    0.000000802
     26        1           0.000001814    0.000001770    0.000000051
     27        6          -0.000000113    0.000000712   -0.000000680
     28        1          -0.000001648   -0.000002920   -0.000003190
     29        1          -0.000000181   -0.000002809   -0.000000874
     30        8           0.000000921    0.000003483    0.000000104
     31       16          -0.000000317    0.000003070   -0.000001439
     32       16          -0.000000468    0.000001075    0.000000739
     33        6           0.000000605    0.000000020    0.000004484
     34        6           0.000000024    0.000001963    0.000001399
     35        6           0.000000719    0.000005666    0.000005573
     36        6           0.000000718    0.000002630    0.000002004
     37        6           0.000001196    0.000003243    0.000002149
     38        6           0.000001810    0.000001662    0.000001610
     39        6          -0.000000225   -0.000004198   -0.000002698
     40        1           0.000000751    0.000002719    0.000002606
     41        1           0.000000885    0.000003829    0.000003179
     42        1           0.000000618    0.000003104    0.000001993
     43        6          -0.000002198    0.000004958    0.000000056
     44        6          -0.000000111    0.000001795   -0.000001435
     45        6           0.000000039    0.000001838   -0.000000563
     46        6           0.000001406    0.000001309   -0.000001192
     47        6          -0.000001652    0.000000113   -0.000004581
     48        6          -0.000000309   -0.000001414   -0.000000692
     49        1          -0.000000025    0.000001904   -0.000001493
     50        1          -0.000000675    0.000001408   -0.000003252
     51        1          -0.000000841    0.000000476   -0.000002680
     52        6           0.000000571   -0.000001819   -0.000001610
     53        1          -0.000001606   -0.000002140   -0.000002621
     54        6          -0.000000828   -0.000002592   -0.000003982
     55        1           0.000000578    0.000000082   -0.000000236
     56        1           0.000000651    0.000001408    0.000001040
     57        6           0.000002147   -0.000001179    0.000003674
     58        6          -0.000005452   -0.000003585   -0.000000389
     59        1           0.000000771   -0.000001819    0.000002977
     60        1          -0.000000109   -0.000002852    0.000000954
     61       35           0.000002907   -0.000005619    0.000006836
 -------------------------------------------------------------------
 Cartesian Forces:  Max     0.000029224 RMS     0.000004648
 NDeriv=    183 NFrqRd=  0 NDerD0=      0 MskFDP=       0 MskDFD=       0 MskDF0=       0
 At 1st pt F.D. properties file   721 does not exist.
 At 1st pt F.D. properties file   722 does not exist.
 D2Numr ... symmetry will be used.
 Basis read from rwf:  (5D, 7F)
   749 basis functions,  1349 primitive gaussians,   800 cartesian basis functions
   174 alpha electrons      174 beta electrons
       nuclear repulsion energy      6625.2181139954 Hartrees.
 NAtoms=   61 NActive=   61 NUniq=   61 SFac= 1.00D+00 NAtFMM=   60 NAOKFM=T Big=T
 Integral buffers will be    131072 words long.
 Raffenetti 2 integral format.
 Two-electron integral symmetry is turned off.
 Nuclear repulsion after empirical dispersion term =     6625.1486756261 Hartrees.
 ------------------------------------------------------------------------------
 Polarizable Continuum Model (PCM)
 =================================
 Model                : PCM.
 Atomic radii         : UFF (Universal Force Field).
 Polarization charges : Total charges.
 Charge compensation  : None.
 Solution method      : On-the-fly selection.
 Cavity type          : Scaled VdW (van der Waals Surface) (Alpha=1.100).
 Cavity algorithm     : GePol (No added spheres)
                        Default sphere list used, NSphG=   61.
                        Lebedev-Laikov grids with approx.  5.0 points / Ang**2.
                        Smoothing algorithm: York/Karplus (Gamma=1.0000).
                        Polarization charges: spherical gaussians, with
                                              point-specific exponents (IZeta= 3).
                        Self-potential: point-specific (ISelfS= 7).
                        Self-field    : sphere-specific E.n sum rule (ISelfD= 2).
 1st derivatives      : Analytical E(r).r(x)/FMM algorithm (CHGder, D1EAlg=3).
                        Cavity 1st derivative terms included.
 Solvent              : TetraHydroFuran, Eps=   7.425700 Eps(inf)=   1.974025
 ------------------------------------------------------------------------------
 One-electron integrals computed using PRISM.
 NBasis=   749 RedAO= T EigKep=  2.25D-04  NBF=   749
 NBsUse=   749 1.00D-06 EigRej= -1.00D+00 NBFU=   749
 Initial guess from the checkpoint file:  "checkpoint.chk"
 B after Tr=     0.000136   -0.000000    0.000000
         Rot=    1.000000    0.000000    0.000003    0.000004 Ang=   0.00 deg.
 Requested convergence on RMS density matrix=1.00D-08 within 128 cycles.
 Requested convergence on MAX density matrix=1.00D-06.
 Requested convergence on             energy=1.00D-06.
 No special actions if energy rises.
 Inv3:  Mode=1 IEnd=    68516523.
 Iteration    1 A*A^-1 deviation from unit magnitude is 4.66D-15 for   1123.
 Iteration    1 A*A^-1 deviation from orthogonality  is 3.33D-15 for   3057   1094.
 Iteration    1 A^-1*A deviation from unit magnitude is 4.44D-15 for   1123.
 Iteration    1 A^-1*A deviation from orthogonality  is 9.07D-14 for   4139   4127.
 Error on total polarization charges =  0.02602
 SCF Done:  E(RwB97XD) =  -6140.23096069     A.U. after   11 cycles
            NFock= 11  Conv=0.30D-08     -V/T= 2.0038

 **********************************************************************

            Population analysis using the SCF density.

 **********************************************************************

 Alpha  occ. eigenvalues -- -482.95275-235.72051 -89.04536 -89.04091 -62.53343
 Alpha  occ. eigenvalues --  -56.33893 -56.33892 -56.33891 -27.48758 -23.54722
 Alpha  occ. eigenvalues --  -23.54303 -23.54251 -19.35894 -19.35753 -19.35541
 Alpha  occ. eigenvalues --  -14.51753 -14.51205 -14.46906 -10.43298 -10.43195
 Alpha  occ. eigenvalues --  -10.43161 -10.37940 -10.37529 -10.37464 -10.36705
 Alpha  occ. eigenvalues --  -10.36397 -10.36273 -10.36251 -10.35966 -10.35873
 Alpha  occ. eigenvalues --  -10.35784 -10.35367 -10.35316 -10.34886 -10.34818
 Alpha  occ. eigenvalues --  -10.34720 -10.34665 -10.34122 -10.33604 -10.33514
 Alpha  occ. eigenvalues --  -10.33194 -10.33153 -10.33032 -10.32999 -10.32798
 Alpha  occ. eigenvalues --  -10.32783 -10.32738 -10.32598 -10.32517 -10.32473
 Alpha  occ. eigenvalues --   -8.70110  -8.09548  -8.09237  -6.51786  -6.51784
 Alpha  occ. eigenvalues --   -6.51780  -6.05014  -6.04697  -6.04622  -6.04302
 Alpha  occ. eigenvalues --   -6.03987  -6.03671  -3.28230  -2.62295  -2.62294
 Alpha  occ. eigenvalues --   -2.62291  -2.62289  -2.62288  -2.14135  -2.13164
 Alpha  occ. eigenvalues --   -2.13030  -1.24872  -1.24724  -1.24474  -1.09365
 Alpha  occ. eigenvalues --   -1.08623  -1.02442  -1.01582  -0.99216  -0.98078
 Alpha  occ. eigenvalues --   -0.95323  -0.94128  -0.92543  -0.91840  -0.90419
 Alpha  occ. eigenvalues --   -0.88960  -0.88354  -0.86888  -0.86611  -0.85994
 Alpha  occ. eigenvalues --   -0.83388  -0.79267  -0.76916  -0.76365  -0.76235
 Alpha  occ. eigenvalues --   -0.75576  -0.74968  -0.74415  -0.72791  -0.72229
 Alpha  occ. eigenvalues --   -0.71061  -0.70412  -0.69290  -0.67524  -0.66320
 Alpha  occ. eigenvalues --   -0.66128  -0.65994  -0.65701  -0.64996  -0.62868
 Alpha  occ. eigenvalues --   -0.62405  -0.61612  -0.60465  -0.59532  -0.59414
 Alpha  occ. eigenvalues --   -0.58657  -0.58201  -0.57942  -0.57841  -0.57743
 Alpha  occ. eigenvalues --   -0.57561  -0.57459  -0.57337  -0.56431  -0.56257
 Alpha  occ. eigenvalues --   -0.55610  -0.55176  -0.55019  -0.54837  -0.54368
 Alpha  occ. eigenvalues --   -0.53777  -0.53549  -0.53261  -0.53049  -0.52987
 Alpha  occ. eigenvalues --   -0.52770  -0.52510  -0.51950  -0.51924  -0.50948
 Alpha  occ. eigenvalues --   -0.49988  -0.49573  -0.48878  -0.48693  -0.48409
 Alpha  occ. eigenvalues --   -0.47954  -0.46349  -0.46238  -0.45913  -0.45812
 Alpha  occ. eigenvalues --   -0.44850  -0.44771  -0.44035  -0.43757  -0.42956
 Alpha  occ. eigenvalues --   -0.42361  -0.41314  -0.40788  -0.40347  -0.38925
 Alpha  occ. eigenvalues --   -0.38040  -0.37431  -0.35993  -0.35739  -0.35224
 Alpha  occ. eigenvalues --   -0.34727  -0.34484  -0.34270  -0.33373  -0.31674
 Alpha  occ. eigenvalues --   -0.30543  -0.29606  -0.29566  -0.29543
 Alpha virt. eigenvalues --   -0.02510  -0.00512  -0.00121   0.00238   0.00647
 Alpha virt. eigenvalues --    0.01212   0.01913   0.02828   0.03131   0.03475
 Alpha virt. eigenvalues --    0.03689   0.04096   0.04492   0.05576   0.05819
 Alpha virt. eigenvalues --    0.08209   0.08605   0.08738   0.08856   0.09352
 Alpha virt. eigenvalues --    0.10019   0.10630   0.12159   0.12467   0.13375
 Alpha virt. eigenvalues --    0.13504   0.13894   0.14355   0.14412   0.15198
 Alpha virt. eigenvalues --    0.15843   0.15997   0.16216   0.17147   0.17577
 Alpha virt. eigenvalues --    0.18171   0.18309   0.18730   0.18902   0.19422
 Alpha virt. eigenvalues --    0.19708   0.20135   0.20949   0.21042   0.21420
 Alpha virt. eigenvalues --    0.21650   0.21886   0.22412   0.23095   0.23245
 Alpha virt. eigenvalues --    0.23581   0.23701   0.24056   0.24594   0.25250
 Alpha virt. eigenvalues --    0.25882   0.26614   0.26870   0.27641   0.28156
 Alpha virt. eigenvalues --    0.28422   0.28819   0.29450   0.30431   0.31286
 Alpha virt. eigenvalues --    0.31867   0.32098   0.32294   0.32645   0.32923
 Alpha virt. eigenvalues --    0.33234   0.33414   0.34226   0.34822   0.34831
 Alpha virt. eigenvalues --    0.35323   0.35688   0.36117   0.36476   0.36864
 Alpha virt. eigenvalues --    0.37373   0.37543   0.37880   0.38575   0.38730
 Alpha virt. eigenvalues --    0.39147   0.39447   0.39810   0.40483   0.40928
 Alpha virt. eigenvalues --    0.41549   0.42054   0.42532   0.42692   0.43285
 Alpha virt. eigenvalues --    0.44392   0.44629   0.45784   0.46290   0.46588
 Alpha virt. eigenvalues --    0.47374   0.47499   0.47999   0.48202   0.48687
 Alpha virt. eigenvalues --    0.49251   0.49425   0.49711   0.50805   0.50998
 Alpha virt. eigenvalues --    0.51072   0.51622   0.52107   0.52224   0.52657
 Alpha virt. eigenvalues --    0.53008   0.53430   0.53700   0.53915   0.54337
 Alpha virt. eigenvalues --    0.54650   0.54795   0.55074   0.55416   0.55632
 Alpha virt. eigenvalues --    0.56451   0.56672   0.56970   0.57339   0.57968
 Alpha virt. eigenvalues --    0.58473   0.58775   0.59982   0.60265   0.60496
 Alpha virt. eigenvalues --    0.60709   0.60985   0.61107   0.61984   0.62670
 Alpha virt. eigenvalues --    0.63622   0.63812   0.64164   0.64594   0.64866
 Alpha virt. eigenvalues --    0.65164   0.65318   0.65929   0.66179   0.66456
 Alpha virt. eigenvalues --    0.66594   0.67163   0.67516   0.68572   0.69031
 Alpha virt. eigenvalues --    0.69123   0.69719   0.69870   0.70714   0.70890
 Alpha virt. eigenvalues --    0.71163   0.71429   0.71631   0.71745   0.71882
 Alpha virt. eigenvalues --    0.72190   0.72496   0.72865   0.73033   0.73209
 Alpha virt. eigenvalues --    0.73611   0.73949   0.74120   0.74500   0.75106
 Alpha virt. eigenvalues --    0.75420   0.75620   0.76063   0.76350   0.76812
 Alpha virt. eigenvalues --    0.77311   0.77499   0.77678   0.77773   0.78095
 Alpha virt. eigenvalues --    0.78190   0.79062   0.79461   0.79649   0.80221
 Alpha virt. eigenvalues --    0.80395   0.80655   0.81120   0.81377   0.82178
 Alpha virt. eigenvalues --    0.82228   0.82553   0.82729   0.83166   0.83486
 Alpha virt. eigenvalues --    0.83689   0.83766   0.84155   0.84360   0.84484
 Alpha virt. eigenvalues --    0.84612   0.85256   0.85655   0.85879   0.85972
 Alpha virt. eigenvalues --    0.86055   0.86473   0.87038   0.87340   0.87460
 Alpha virt. eigenvalues --    0.87917   0.88304   0.88745   0.89196   0.89260
 Alpha virt. eigenvalues --    0.89623   0.90062   0.90497   0.90793   0.91022
 Alpha virt. eigenvalues --    0.91246   0.92241   0.92355   0.92597   0.93381
 Alpha virt. eigenvalues --    0.93832   0.94101   0.94704   0.95288   0.95861
 Alpha virt. eigenvalues --    0.96580   0.97206   0.97390   0.98977   0.99720
 Alpha virt. eigenvalues --    0.99996   1.00923   1.01635   1.02538   1.02785
 Alpha virt. eigenvalues --    1.03163   1.04270   1.05068   1.05912   1.06497
 Alpha virt. eigenvalues --    1.07187   1.07705   1.09127   1.09361   1.10364
 Alpha virt. eigenvalues --    1.11022   1.11692   1.11977   1.12271   1.13057
 Alpha virt. eigenvalues --    1.13364   1.13460   1.14562   1.15281   1.15867
 Alpha virt. eigenvalues --    1.16358   1.16548   1.17678   1.19466   1.19895
 Alpha virt. eigenvalues --    1.20161   1.21354   1.22145   1.22667   1.23512
 Alpha virt. eigenvalues --    1.23949   1.24442   1.25050   1.25725   1.26912
 Alpha virt. eigenvalues --    1.27365   1.27958   1.28112   1.28900   1.29007
 Alpha virt. eigenvalues --    1.29513   1.29624   1.29981   1.30281   1.31131
 Alpha virt. eigenvalues --    1.31906   1.32441   1.32805   1.33068   1.34345
 Alpha virt. eigenvalues --    1.34838   1.35100   1.35689   1.35925   1.36018
 Alpha virt. eigenvalues --    1.36435   1.36570   1.37071   1.37271   1.37682
 Alpha virt. eigenvalues --    1.38603   1.39219   1.39461   1.40422   1.41318
 Alpha virt. eigenvalues --    1.42247   1.44173   1.45978   1.47452   1.48014
 Alpha virt. eigenvalues --    1.48782   1.49837   1.51045   1.52913   1.54597
 Alpha virt. eigenvalues --    1.56329   1.56837   1.57907   1.58459   1.60190
 Alpha virt. eigenvalues --    1.60984   1.61501   1.62729   1.63576   1.64720
 Alpha virt. eigenvalues --    1.64807   1.65978   1.67769   1.68392   1.68794
 Alpha virt. eigenvalues --    1.69304   1.70029   1.70310   1.70858   1.71202
 Alpha virt. eigenvalues --    1.72937   1.73121   1.73304   1.73915   1.74794
 Alpha virt. eigenvalues --    1.75122   1.75664   1.76441   1.76733   1.76740
 Alpha virt. eigenvalues --    1.77164   1.77675   1.78140   1.78373   1.79130
 Alpha virt. eigenvalues --    1.79406   1.79821   1.80177   1.80365   1.80583
 Alpha virt. eigenvalues --    1.81028   1.81454   1.81730   1.82468   1.82611
 Alpha virt. eigenvalues --    1.83675   1.83912   1.84135   1.84654   1.85654
 Alpha virt. eigenvalues --    1.86012   1.86328   1.86720   1.87275   1.87629
 Alpha virt. eigenvalues --    1.88024   1.88586   1.88807   1.89012   1.89531
 Alpha virt. eigenvalues --    1.90075   1.90684   1.91021   1.91811   1.92259
 Alpha virt. eigenvalues --    1.92634   1.93488   1.93762   1.94787   1.95021
 Alpha virt. eigenvalues --    1.96312   1.97782   1.98189   1.99066   1.99674
 Alpha virt. eigenvalues --    2.00179   2.00467   2.01059   2.01631   2.01962
 Alpha virt. eigenvalues --    2.02511   2.02719   2.02897   2.03651   2.04144
 Alpha virt. eigenvalues --    2.04891   2.05291   2.06259   2.06405   2.06603
 Alpha virt. eigenvalues --    2.06730   2.07433   2.08574   2.08906   2.09920
 Alpha virt. eigenvalues --    2.10528   2.10958   2.11853   2.12125   2.12316
 Alpha virt. eigenvalues --    2.14517   2.16473   2.17317   2.17861   2.18354
 Alpha virt. eigenvalues --    2.18569   2.19167   2.19439   2.21124   2.22087
 Alpha virt. eigenvalues --    2.22465   2.23067   2.23475   2.23666   2.24744
 Alpha virt. eigenvalues --    2.26502   2.26832   2.29258   2.29644   2.30468
 Alpha virt. eigenvalues --    2.30920   2.31103   2.31520   2.31810   2.32465
 Alpha virt. eigenvalues --    2.33627   2.34270   2.35114   2.35529   2.36178
 Alpha virt. eigenvalues --    2.36724   2.37119   2.37541   2.38244   2.38473
 Alpha virt. eigenvalues --    2.38557   2.39065   2.39313   2.39551   2.40285
 Alpha virt. eigenvalues --    2.40843   2.41742   2.42260   2.43575   2.45246
 Alpha virt. eigenvalues --    2.46178   2.46946   2.48625   2.49080   2.49374
 Alpha virt. eigenvalues --    2.52480   2.53433   2.54802   2.56184   2.57972
 Alpha virt. eigenvalues --    2.59191   2.59301   2.60147   2.62458   2.64986
 Alpha virt. eigenvalues --    2.66565   2.66806   2.67537   2.68004   2.68223
 Alpha virt. eigenvalues --    2.68338   2.68506   2.68576   2.68770   2.68853
 Alpha virt. eigenvalues --    2.69022   2.69351   2.69486   2.69552   2.70847
 Alpha virt. eigenvalues --    2.72009   2.72584   2.75860   2.76337   2.77827
 Alpha virt. eigenvalues --    2.78548   2.80060   2.80283   2.81001   2.82228
 Alpha virt. eigenvalues --    2.82594   2.82713   2.83709   2.84353   2.85055
 Alpha virt. eigenvalues --    2.86368   2.86875   2.88115   2.88852   2.90954
 Alpha virt. eigenvalues --    2.92469   2.92644   2.95540   2.98095   2.98706
 Alpha virt. eigenvalues --    2.99093   3.01279   3.03005   3.03909   3.04160
 Alpha virt. eigenvalues --    3.04756   3.07149   3.08106   3.08633   3.10226
 Alpha virt. eigenvalues --    3.10518   3.14346   3.15656   3.15915   3.19064
 Alpha virt. eigenvalues --    3.19937   3.21076   3.22028   3.22616   3.22730
 Alpha virt. eigenvalues --    3.23226   3.23881   3.28558   3.28992   3.31214
 Alpha virt. eigenvalues --    3.36828   3.38739   3.39177   3.42261   3.44382
 Alpha virt. eigenvalues --    3.45775   3.49849   3.51909   3.54038   3.57074
 Alpha virt. eigenvalues --    3.58167   3.59531   3.61029   3.61549   3.61836
 Alpha virt. eigenvalues --    3.62169   3.64037   3.69391   3.70299   3.74854
 Alpha virt. eigenvalues --    3.75188   3.76145   3.76750   3.78035   3.78845
 Alpha virt. eigenvalues --    3.80296   3.90266   3.93462   4.02094   4.05774
 Electronic spatial extent (au):  <R**2>=          23959.7855
 Charge=              0.0000 electrons
 Dipole moment (field-independent basis, Debye):
    X=             28.7788    Y=              8.4247    Z=             -0.3490  Tot=             29.9886
 Quadrupole moment (field-independent basis, Debye-Ang):
   XX=           -404.0530   YY=           -239.0113   ZZ=           -255.3182
   XY=            -38.8149   XZ=             16.4885   YZ=             21.8823
 Traceless Quadrupole moment (field-independent basis, Debye-Ang):
   XX=           -104.5922   YY=             60.4496   ZZ=             44.1426
   XY=            -38.8149   XZ=             16.4885   YZ=             21.8823
 Octapole moment (field-independent basis, Debye-Ang**2):
  XXX=            883.8479  YYY=             14.7659  ZZZ=             17.2302  XYY=             95.3909
  XXY=            342.5555  XXZ=           -130.6806  XZZ=              2.6864  YZZ=             -6.2333
  YYZ=              5.8808  XYZ=              4.4516
 Hexadecapole moment (field-independent basis, Debye-Ang**3):
 XXXX=         -22197.7641 YYYY=          -7243.4298 ZZZZ=          -5638.6308 XXXY=          -1354.7174
 XXXZ=            351.5655 YYYX=             57.2554 YYYZ=            194.4898 ZZZX=            176.6008
 ZZZY=            138.4428 XXYY=          -4373.8063 XXZZ=          -3842.2541 YYZZ=          -1954.7166
 XXYZ=            211.0204 YYXZ=            -24.1563 ZZXY=           -166.0644
 N-N= 6.625148675626D+03 E-N=-2.778709792708D+04  KE= 6.117234246051D+03
 D1PCM: PCM CHGder 1st derivatives, ID1Alg=3 FixD1E=F DoIter=F DoCFld=F I1PDM=0.
 Calling FoFJK, ICntrl=      2127 FMM=T ISym2X=0 I1Cent= 0 IOpClX= 0 NMat=1 NMatS=1 NMatT=0.
 -------------------------------------------------------------------
 Center     Atomic                   Forces (Hartrees/Bohr)
 Number     Number              X              Y              Z
 -------------------------------------------------------------------
      1       25          -0.000595053    0.000034903   -0.000054289
      2        6           0.000162655   -0.000006494    0.000039138
      3        8          -0.000037902   -0.000054983   -0.000011129
      4        6           0.000135180   -0.000034738    0.000042727
      5        8           0.000056662    0.000049110    0.000054364
      6        6           0.000087883    0.000004178    0.000010430
      7        7           0.000085455   -0.000010260    0.000003584
      8        6           0.000002377    0.000001692   -0.000000055
      9        6          -0.000001926   -0.000001226   -0.000005464
     10        6           0.000012194   -0.000024639    0.000006243
     11        1           0.000001746   -0.000001110    0.000001465
     12        1          -0.000000341   -0.000000328    0.000004723
     13        7          -0.000001464    0.000010345    0.000006169
     14        6           0.000001586    0.000000616   -0.000001542
     15        6          -0.000006201   -0.000008548   -0.000002010
     16        6           0.000002686    0.000004152    0.000003779
     17        6           0.000000472    0.000003544    0.000002102
     18        6          -0.000012831    0.000029284   -0.000006661
     19        1          -0.000001029    0.000002117    0.000001179
     20        1           0.000012493   -0.000008696    0.000011298
     21        7           0.000069026   -0.000005613   -0.000012143
     22        6           0.000001791    0.000000843   -0.000007094
     23        6           0.000001149    0.000003000   -0.000004160
     24        1          -0.000000706   -0.000015228   -0.000002883
     25        6          -0.000013214    0.000013503    0.000000398
     26        1          -0.000001254    0.000001138    0.000000575
     27        6          -0.000007956    0.000003226    0.000004910
     28        1           0.000001610    0.000002622   -0.000004875
     29        1           0.000000188    0.000002801   -0.000000879
     30        8           0.000022726    0.000019359   -0.000099374
     31       16           0.000000500   -0.000003110   -0.000001290
     32       16           0.000000422   -0.000001036    0.000000733
     33        6          -0.000000018   -0.000000568    0.000001400
     34        6          -0.000000189   -0.000002461    0.000001403
     35        6          -0.000000574   -0.000005613    0.000005651
     36        6          -0.000000684   -0.000002588    0.000001985
     37        6          -0.000001165   -0.000003249    0.000002157
     38        6          -0.000001873   -0.000001677    0.000001680
     39        6           0.000000179    0.000004056   -0.000002906
     40        1          -0.000000739   -0.000002701    0.000002625
     41        1          -0.000000861   -0.000003837    0.000003145
     42        1          -0.000000622   -0.000003090    0.000001989
     43        6           0.000002026   -0.000005002    0.000000095
     44        6           0.000000107   -0.000001819   -0.000001403
     45        6          -0.000000097   -0.000001753   -0.000000533
     46        6          -0.000001403   -0.000001377   -0.000001216
     47        6           0.000001503   -0.000000071   -0.000004483
     48        6           0.000000542    0.000001571   -0.000000777
     49        1           0.000000007   -0.000001902   -0.000001499
     50        1           0.000000653   -0.000001406   -0.000003265
     51        1           0.000000856   -0.000000497   -0.000002714
     52        6          -0.000001492    0.000002385   -0.000002581
     53        1           0.000001448    0.000002284   -0.000002667
     54        6           0.000025402    0.000005191    0.000004990
     55        1          -0.000001147    0.000000908    0.000001040
     56        1          -0.000000315   -0.000002367    0.000002247
     57        6          -0.000002171    0.000001175    0.000003662
     58        6           0.000005412    0.000003559   -0.000000381
     59        1          -0.000000761    0.000001826    0.000002976
     60        1           0.000000123    0.000002852    0.000000953
     61       35          -0.000003073    0.000005744    0.000006458
 -------------------------------------------------------------------
 Cartesian Forces:  Max     0.000595053 RMS     0.000049939
 NDeriv=    183 NFrqRd=  0 NDerD0=      0 MskFDP=       0 MskDFD=       0 MskDF0=       0
 Re-enter D2Numr:  atom   1 IXYZ=1 step-up   number 1
 Basis read from rwf:  (5D, 7F)
   749 basis functions,  1349 primitive gaussians,   800 cartesian basis functions
   174 alpha electrons      174 beta electrons
       nuclear repulsion energy      6625.1152733449 Hartrees.
 NAtoms=   61 NActive=   61 NUniq=   61 SFac= 1.00D+00 NAtFMM=   60 NAOKFM=T Big=T
 Integral buffers will be    131072 words long.
 Raffenetti 2 integral format.
 Two-electron integral symmetry is turned off.
 Nuclear repulsion after empirical dispersion term =     6625.0458363996 Hartrees.
 ------------------------------------------------------------------------------
 Polarizable Continuum Model (PCM)
 =================================
 Model                : PCM.
 Atomic radii         : UFF (Universal Force Field).
 Polarization charges : Total charges.
 Charge compensation  : None.
 Solution method      : On-the-fly selection.
 Cavity type          : Scaled VdW (van der Waals Surface) (Alpha=1.100).
 Cavity algorithm     : GePol (No added spheres)
                        Default sphere list used, NSphG=   61.
                        Lebedev-Laikov grids with approx.  5.0 points / Ang**2.
                        Smoothing algorithm: York/Karplus (Gamma=1.0000).
                        Polarization charges: spherical gaussians, with
                                              point-specific exponents (IZeta= 3).
                        Self-potential: point-specific (ISelfS= 7).
                        Self-field    : sphere-specific E.n sum rule (ISelfD= 2).
 1st derivatives      : Analytical E(r).r(x)/FMM algorithm (CHGder, D1EAlg=3).
                        Cavity 1st derivative terms included.
 Solvent              : TetraHydroFuran, Eps=   7.425700 Eps(inf)=   1.974025
 ------------------------------------------------------------------------------
 One-electron integrals computed using PRISM.
 NBasis=   749 RedAO= T EigKep=  2.25D-04  NBF=   749
 NBsUse=   749 1.00D-06 EigRej= -1.00D+00 NBFU=   749
 Initial guess from the checkpoint file:  "checkpoint.chk"
 B after Tr=    -0.000136    0.000000   -0.000000
         Rot=    1.000000    0.000000   -0.000003   -0.000004 Ang=  -0.00 deg.
 Requested convergence on RMS density matrix=1.00D-08 within 128 cycles.
 Requested convergence on MAX density matrix=1.00D-06.
 Requested convergence on             energy=1.00D-06.
 No special actions if energy rises.
 Inv3:  Mode=1 IEnd=    68516523.
 Iteration    1 A*A^-1 deviation from unit magnitude is 3.11D-15 for   4413.
 Iteration    1 A*A^-1 deviation from orthogonality  is 3.33D-15 for   3328    413.
 Iteration    1 A^-1*A deviation from unit magnitude is 3.11D-15 for    236.
 Iteration    1 A^-1*A deviation from orthogonality  is 5.71D-14 for   4179   4127.
 Error on total polarization charges =  0.02602
 SCF Done:  E(RwB97XD) =  -6140.23096069     A.U. after   11 cycles
            NFock= 11  Conv=0.29D-08     -V/T= 2.0038

 **********************************************************************

            Population analysis using the SCF density.

 **********************************************************************

 Alpha  occ. eigenvalues -- -482.95274-235.72059 -89.04536 -89.04091 -62.53342
 Alpha  occ. eigenvalues --  -56.33893 -56.33892 -56.33891 -27.48766 -23.54729
 Alpha  occ. eigenvalues --  -23.54312 -23.54261 -19.35886 -19.35734 -19.35565
 Alpha  occ. eigenvalues --  -14.51750 -14.51205 -14.46906 -10.43291 -10.43218
 Alpha  occ. eigenvalues --  -10.43142 -10.37940 -10.37528 -10.37466 -10.36705
 Alpha  occ. eigenvalues --  -10.36397 -10.36273 -10.36251 -10.35967 -10.35873
 Alpha  occ. eigenvalues --  -10.35784 -10.35366 -10.35316 -10.34886 -10.34818
 Alpha  occ. eigenvalues --  -10.34720 -10.34666 -10.34121 -10.33604 -10.33514
 Alpha  occ. eigenvalues --  -10.33194 -10.33153 -10.33032 -10.32999 -10.32799
 Alpha  occ. eigenvalues --  -10.32783 -10.32738 -10.32598 -10.32517 -10.32473
 Alpha  occ. eigenvalues --   -8.70110  -8.09548  -8.09237  -6.51786  -6.51784
 Alpha  occ. eigenvalues --   -6.51780  -6.05015  -6.04697  -6.04622  -6.04302
 Alpha  occ. eigenvalues --   -6.03987  -6.03671  -3.28238  -2.62295  -2.62294
 Alpha  occ. eigenvalues --   -2.62290  -2.62289  -2.62288  -2.14138  -2.13172
 Alpha  occ. eigenvalues --   -2.13042  -1.24866  -1.24711  -1.24492  -1.09362
 Alpha  occ. eigenvalues --   -1.08622  -1.02442  -1.01583  -0.99216  -0.98078
 Alpha  occ. eigenvalues --   -0.95323  -0.94127  -0.92543  -0.91840  -0.90419
 Alpha  occ. eigenvalues --   -0.88960  -0.88354  -0.86888  -0.86611  -0.85994
 Alpha  occ. eigenvalues --   -0.83388  -0.79267  -0.76914  -0.76365  -0.76234
 Alpha  occ. eigenvalues --   -0.75576  -0.74968  -0.74415  -0.72791  -0.72229
 Alpha  occ. eigenvalues --   -0.71060  -0.70412  -0.69290  -0.67524  -0.66320
 Alpha  occ. eigenvalues --   -0.66129  -0.65994  -0.65700  -0.64995  -0.62868
 Alpha  occ. eigenvalues --   -0.62404  -0.61612  -0.60465  -0.59531  -0.59414
 Alpha  occ. eigenvalues --   -0.58657  -0.58201  -0.57946  -0.57839  -0.57743
 Alpha  occ. eigenvalues --   -0.57562  -0.57459  -0.57336  -0.56437  -0.56250
 Alpha  occ. eigenvalues --   -0.55610  -0.55176  -0.55017  -0.54839  -0.54367
 Alpha  occ. eigenvalues --   -0.53777  -0.53549  -0.53262  -0.53050  -0.52989
 Alpha  occ. eigenvalues --   -0.52770  -0.52510  -0.51951  -0.51928  -0.50948
 Alpha  occ. eigenvalues --   -0.49988  -0.49573  -0.48878  -0.48693  -0.48410
 Alpha  occ. eigenvalues --   -0.47954  -0.46349  -0.46238  -0.45914  -0.45812
 Alpha  occ. eigenvalues --   -0.44849  -0.44771  -0.44033  -0.43757  -0.42953
 Alpha  occ. eigenvalues --   -0.42356  -0.41310  -0.40787  -0.40347  -0.38925
 Alpha  occ. eigenvalues --   -0.38039  -0.37431  -0.35993  -0.35739  -0.35224
 Alpha  occ. eigenvalues --   -0.34728  -0.34490  -0.34279  -0.33390  -0.31674
 Alpha  occ. eigenvalues --   -0.30543  -0.29606  -0.29565  -0.29543
 Alpha virt. eigenvalues --   -0.02507  -0.00512  -0.00122   0.00234   0.00648
 Alpha virt. eigenvalues --    0.01211   0.01913   0.02828   0.03132   0.03451
 Alpha virt. eigenvalues --    0.03689   0.04092   0.04491   0.05586   0.05820
 Alpha virt. eigenvalues --    0.08206   0.08606   0.08738   0.08856   0.09364
 Alpha virt. eigenvalues --    0.10019   0.10630   0.12160   0.12467   0.13375
 Alpha virt. eigenvalues --    0.13504   0.13894   0.14354   0.14412   0.15198
 Alpha virt. eigenvalues --    0.15844   0.15997   0.16216   0.17147   0.17577
 Alpha virt. eigenvalues --    0.18172   0.18310   0.18731   0.18901   0.19422
 Alpha virt. eigenvalues --    0.19708   0.20135   0.20949   0.21042   0.21420
 Alpha virt. eigenvalues --    0.21650   0.21886   0.22412   0.23095   0.23244
 Alpha virt. eigenvalues --    0.23580   0.23701   0.24057   0.24593   0.25251
 Alpha virt. eigenvalues --    0.25883   0.26614   0.26870   0.27641   0.28156
 Alpha virt. eigenvalues --    0.28424   0.28820   0.29449   0.30431   0.31285
 Alpha virt. eigenvalues --    0.31866   0.32095   0.32295   0.32645   0.32919
 Alpha virt. eigenvalues --    0.33234   0.33412   0.34225   0.34821   0.34830
 Alpha virt. eigenvalues --    0.35323   0.35687   0.36116   0.36475   0.36864
 Alpha virt. eigenvalues --    0.37373   0.37543   0.37879   0.38575   0.38730
 Alpha virt. eigenvalues --    0.39147   0.39445   0.39806   0.40482   0.40927
 Alpha virt. eigenvalues --    0.41549   0.42054   0.42531   0.42692   0.43282
 Alpha virt. eigenvalues --    0.44392   0.44629   0.45783   0.46291   0.46587
 Alpha virt. eigenvalues --    0.47372   0.47498   0.47999   0.48201   0.48685
 Alpha virt. eigenvalues --    0.49251   0.49424   0.49710   0.50802   0.50998
 Alpha virt. eigenvalues --    0.51071   0.51622   0.52105   0.52223   0.52652
 Alpha virt. eigenvalues --    0.53005   0.53431   0.53700   0.53915   0.54334
 Alpha virt. eigenvalues --    0.54650   0.54794   0.55073   0.55417   0.55629
 Alpha virt. eigenvalues --    0.56452   0.56668   0.56968   0.57333   0.57969
 Alpha virt. eigenvalues --    0.58474   0.58775   0.59981   0.60265   0.60495
 Alpha virt. eigenvalues --    0.60709   0.60984   0.61106   0.61984   0.62670
 Alpha virt. eigenvalues --    0.63620   0.63809   0.64164   0.64593   0.64866
 Alpha virt. eigenvalues --    0.65164   0.65316   0.65925   0.66178   0.66457
 Alpha virt. eigenvalues --    0.66590   0.67163   0.67514   0.68570   0.69030
 Alpha virt. eigenvalues --    0.69121   0.69719   0.69868   0.70716   0.70893
 Alpha virt. eigenvalues --    0.71163   0.71430   0.71631   0.71745   0.71882
 Alpha virt. eigenvalues --    0.72190   0.72495   0.72866   0.73033   0.73210
 Alpha virt. eigenvalues --    0.73609   0.73950   0.74119   0.74500   0.75107
 Alpha virt. eigenvalues --    0.75420   0.75620   0.76067   0.76352   0.76810
 Alpha virt. eigenvalues --    0.77311   0.77498   0.77678   0.77771   0.78094
 Alpha virt. eigenvalues --    0.78188   0.79063   0.79462   0.79649   0.80218
 Alpha virt. eigenvalues --    0.80395   0.80656   0.81120   0.81378   0.82178
 Alpha virt. eigenvalues --    0.82230   0.82552   0.82729   0.83165   0.83486
 Alpha virt. eigenvalues --    0.83690   0.83764   0.84155   0.84361   0.84483
 Alpha virt. eigenvalues --    0.84614   0.85256   0.85658   0.85879   0.85972
 Alpha virt. eigenvalues --    0.86058   0.86477   0.87037   0.87340   0.87460
 Alpha virt. eigenvalues --    0.87918   0.88307   0.88743   0.89197   0.89261
 Alpha virt. eigenvalues --    0.89623   0.90062   0.90496   0.90792   0.91022
 Alpha virt. eigenvalues --    0.91247   0.92241   0.92356   0.92596   0.93382
 Alpha virt. eigenvalues --    0.93831   0.94100   0.94701   0.95286   0.95858
 Alpha virt. eigenvalues --    0.96579   0.97207   0.97388   0.98975   0.99719
 Alpha virt. eigenvalues --    0.99996   1.00922   1.01639   1.02533   1.02779
 Alpha virt. eigenvalues --    1.03159   1.04265   1.05066   1.05909   1.06497
 Alpha virt. eigenvalues --    1.07189   1.07703   1.09124   1.09359   1.10366
 Alpha virt. eigenvalues --    1.11018   1.11692   1.11985   1.12277   1.13055
 Alpha virt. eigenvalues --    1.13363   1.13460   1.14562   1.15282   1.15861
 Alpha virt. eigenvalues --    1.16350   1.16548   1.17673   1.19455   1.19890
 Alpha virt. eigenvalues --    1.20157   1.21351   1.22145   1.22669   1.23513
 Alpha virt. eigenvalues --    1.23940   1.24438   1.25047   1.25722   1.26908
 Alpha virt. eigenvalues --    1.27364   1.27959   1.28112   1.28900   1.29007
 Alpha virt. eigenvalues --    1.29506   1.29623   1.29978   1.30279   1.31131
 Alpha virt. eigenvalues --    1.31903   1.32439   1.32799   1.33064   1.34341
 Alpha virt. eigenvalues --    1.34834   1.35091   1.35685   1.35926   1.36018
 Alpha virt. eigenvalues --    1.36429   1.36568   1.37061   1.37268   1.37677
 Alpha virt. eigenvalues --    1.38599   1.39193   1.39456   1.40422   1.41314
 Alpha virt. eigenvalues --    1.42247   1.44172   1.45974   1.47446   1.48015
 Alpha virt. eigenvalues --    1.48786   1.49831   1.51052   1.52914   1.54597
 Alpha virt. eigenvalues --    1.56331   1.56854   1.57914   1.58460   1.60193
 Alpha virt. eigenvalues --    1.60986   1.61539   1.62725   1.63581   1.64716
 Alpha virt. eigenvalues --    1.64828   1.65980   1.67768   1.68390   1.68781
 Alpha virt. eigenvalues --    1.69300   1.70027   1.70304   1.70855   1.71196
 Alpha virt. eigenvalues --    1.72934   1.73120   1.73303   1.73915   1.74794
 Alpha virt. eigenvalues --    1.75122   1.75663   1.76434   1.76719   1.76738
 Alpha virt. eigenvalues --    1.77161   1.77673   1.78138   1.78376   1.79134
 Alpha virt. eigenvalues --    1.79408   1.79822   1.80175   1.80362   1.80583
 Alpha virt. eigenvalues --    1.81027   1.81454   1.81725   1.82465   1.82609
 Alpha virt. eigenvalues --    1.83671   1.83911   1.84134   1.84652   1.85653
 Alpha virt. eigenvalues --    1.86011   1.86324   1.86724   1.87285   1.87629
 Alpha virt. eigenvalues --    1.88027   1.88586   1.88808   1.89012   1.89531
 Alpha virt. eigenvalues --    1.90074   1.90680   1.91019   1.91811   1.92267
 Alpha virt. eigenvalues --    1.92636   1.93483   1.93759   1.94786   1.95022
 Alpha virt. eigenvalues --    1.96313   1.97782   1.98187   1.99057   1.99680
 Alpha virt. eigenvalues --    2.00179   2.00470   2.01062   2.01631   2.01962
 Alpha virt. eigenvalues --    2.02512   2.02717   2.02898   2.03648   2.04145
 Alpha virt. eigenvalues --    2.04889   2.05292   2.06257   2.06399   2.06604
 Alpha virt. eigenvalues --    2.06730   2.07428   2.08574   2.08903   2.09920
 Alpha virt. eigenvalues --    2.10527   2.10957   2.11842   2.12122   2.12313
 Alpha virt. eigenvalues --    2.14513   2.16461   2.17304   2.17816   2.18354
 Alpha virt. eigenvalues --    2.18561   2.19153   2.19435   2.21116   2.22078
 Alpha virt. eigenvalues --    2.22452   2.23060   2.23475   2.23665   2.24742
 Alpha virt. eigenvalues --    2.26501   2.26831   2.29256   2.29642   2.30463
 Alpha virt. eigenvalues --    2.30918   2.31102   2.31516   2.31808   2.32463
 Alpha virt. eigenvalues --    2.33625   2.34270   2.35114   2.35528   2.36169
 Alpha virt. eigenvalues --    2.36721   2.37118   2.37537   2.38239   2.38468
 Alpha virt. eigenvalues --    2.38556   2.39065   2.39310   2.39549   2.40286
 Alpha virt. eigenvalues --    2.40841   2.41740   2.42260   2.43575   2.45245
 Alpha virt. eigenvalues --    2.46179   2.46945   2.48625   2.49081   2.49374
 Alpha virt. eigenvalues --    2.52472   2.53430   2.54802   2.56185   2.57967
 Alpha virt. eigenvalues --    2.59189   2.59300   2.60146   2.62457   2.64983
 Alpha virt. eigenvalues --    2.66565   2.66793   2.67530   2.68004   2.68222
 Alpha virt. eigenvalues --    2.68340   2.68504   2.68565   2.68771   2.68864
 Alpha virt. eigenvalues --    2.69022   2.69353   2.69485   2.69549   2.70847
 Alpha virt. eigenvalues --    2.72007   2.72583   2.75860   2.76337   2.77827
 Alpha virt. eigenvalues --    2.78549   2.80061   2.80283   2.81001   2.82228
 Alpha virt. eigenvalues --    2.82595   2.82713   2.83709   2.84374   2.85063
 Alpha virt. eigenvalues --    2.86381   2.86877   2.88117   2.88875   2.90975
 Alpha virt. eigenvalues --    2.92468   2.92644   2.95540   2.98094   2.98706
 Alpha virt. eigenvalues --    2.99091   3.01278   3.03005   3.03909   3.04161
 Alpha virt. eigenvalues --    3.04756   3.07153   3.08105   3.08635   3.10223
 Alpha virt. eigenvalues --    3.10518   3.14347   3.15655   3.15915   3.19064
 Alpha virt. eigenvalues --    3.19935   3.21070   3.22029   3.22630   3.22736
 Alpha virt. eigenvalues --    3.23227   3.23864   3.28573   3.28994   3.31244
 Alpha virt. eigenvalues --    3.36829   3.38741   3.39182   3.42237   3.44349
 Alpha virt. eigenvalues --    3.45697   3.49786   3.51881   3.54030   3.57073
 Alpha virt. eigenvalues --    3.58166   3.59572   3.61054   3.61537   3.61783
 Alpha virt. eigenvalues --    3.62107   3.64031   3.69386   3.70295   3.74854
 Alpha virt. eigenvalues --    3.75189   3.76146   3.76750   3.78038   3.78855
 Alpha virt. eigenvalues --    3.80308   3.90268   3.93577   4.02258   4.05678
 Electronic spatial extent (au):  <R**2>=          23960.6154
 Charge=             -0.0000 electrons
 Dipole moment (field-independent basis, Debye):
    X=             28.7878    Y=              8.4253    Z=             -0.3525  Tot=             29.9974
 Quadrupole moment (field-independent basis, Debye-Ang):
   XX=           -404.1056   YY=           -239.0151   ZZ=           -255.3000
   XY=            -38.8010   XZ=             16.4666   YZ=             21.8675
 Traceless Quadrupole moment (field-independent basis, Debye-Ang):
   XX=           -104.6320   YY=             60.4585   ZZ=             44.1736
   XY=            -38.8010   XZ=             16.4666   YZ=             21.8675
 Octapole moment (field-independent basis, Debye-Ang**2):
  XXX=            884.1831  YYY=             14.7245  ZZZ=             17.1422  XYY=             95.4736
  XXY=            342.4729  XXZ=           -130.5462  XZZ=              2.7586  YZZ=             -6.1739
  YYZ=              5.8425  XYZ=              4.4347
 Hexadecapole moment (field-independent basis, Debye-Ang**3):
 XXXX=         -22199.7017 YYYY=          -7243.6612 ZZZZ=          -5638.2693 XXXY=          -1354.2504
 XXXZ=            350.8425 YYYX=             57.5984 YYYZ=            194.4129 ZZZX=            176.4354
 ZZZY=            138.1840 XXYY=          -4374.1921 XXZZ=          -3842.7048 YYZZ=          -1954.5781
 XXYZ=            211.1701 YYXZ=            -24.2226 ZZXY=           -166.0243
 N-N= 6.625045836400D+03 E-N=-2.778688976820D+04  KE= 6.117234508862D+03
 D1PCM: PCM CHGder 1st derivatives, ID1Alg=3 FixD1E=F DoIter=F DoCFld=F I1PDM=0.
 Calling FoFJK, ICntrl=      2127 FMM=T ISym2X=0 I1Cent= 0 IOpClX= 0 NMat=1 NMatS=1 NMatT=0.
 -------------------------------------------------------------------
 Center     Atomic                   Forces (Hartrees/Bohr)
 Number     Number              X              Y              Z
 -------------------------------------------------------------------
      1       25           0.000594440   -0.000041358    0.000016376
      2        6          -0.000132296    0.000008230   -0.000016953
      3        8           0.000011456    0.000047851    0.000004934
      4        6          -0.000140703    0.000039801   -0.000049315
      5        8          -0.000053084   -0.000049951   -0.000055324
      6        6          -0.000084707   -0.000011599   -0.000018898
      7        7          -0.000070523    0.000015010    0.000002126
      8        6          -0.000000589   -0.000003638    0.000005473
      9        6          -0.000003433    0.000000222   -0.000006012
     10        6          -0.000009386    0.000018596    0.000004246
     11        1           0.000002239   -0.000002259    0.000001469
     12        1          -0.000000307   -0.000000358    0.000004006
     13        7          -0.000009232    0.000009491    0.000012421
     14        6          -0.000002016    0.000003011   -0.000003453
     15        6          -0.000006492   -0.000008127   -0.000001872
     16        6           0.000002716    0.000004374    0.000003821
     17        6           0.000000450    0.000003414    0.000002076
     18        6          -0.000012968    0.000029186   -0.000006674
     19        1          -0.000001062    0.000002134    0.000001092
     20        1           0.000012463   -0.000008735    0.000011345
     21        7          -0.000061944    0.000006297   -0.000001079
     22        6           0.000003382    0.000007491    0.000000122
     23        6          -0.000001854    0.000002664   -0.000004985
     24        1           0.000000655   -0.000014576   -0.000001688
     25        6           0.000005282   -0.000007863    0.000001159
     26        1          -0.000002435   -0.000004677   -0.000000449
     27        6           0.000008177   -0.000004791   -0.000006488
     28        1           0.000001703    0.000003219   -0.000001497
[...]
 Alpha  occ. eigenvalues --   -2.13036  -1.24869  -1.24718  -1.24483  -1.09363
 Alpha  occ. eigenvalues --   -1.08623  -1.02442  -1.01582  -0.99216  -0.98078
 Alpha  occ. eigenvalues --   -0.95323  -0.94127  -0.92543  -0.91840  -0.90418
 Alpha  occ. eigenvalues --   -0.88959  -0.88354  -0.86888  -0.86611  -0.85994
 Alpha  occ. eigenvalues --   -0.83388  -0.79267  -0.76915  -0.76364  -0.76235
 Alpha  occ. eigenvalues --   -0.75574  -0.74968  -0.74415  -0.72791  -0.72229
 Alpha  occ. eigenvalues --   -0.71061  -0.70411  -0.69290  -0.67524  -0.66320
 Alpha  occ. eigenvalues --   -0.66129  -0.65994  -0.65700  -0.64995  -0.62868
 Alpha  occ. eigenvalues --   -0.62405  -0.61612  -0.60465  -0.59532  -0.59414
 Alpha  occ. eigenvalues --   -0.58656  -0.58201  -0.57944  -0.57840  -0.57743
 Alpha  occ. eigenvalues --   -0.57560  -0.57459  -0.57336  -0.56433  -0.56253
 Alpha  occ. eigenvalues --   -0.55610  -0.55175  -0.55018  -0.54837  -0.54367
 Alpha  occ. eigenvalues --   -0.53777  -0.53548  -0.53262  -0.53050  -0.52988
 Alpha  occ. eigenvalues --   -0.52770  -0.52510  -0.51951  -0.51926  -0.50948
 Alpha  occ. eigenvalues --   -0.49988  -0.49573  -0.48877  -0.48693  -0.48409
 Alpha  occ. eigenvalues --   -0.47952  -0.46349  -0.46238  -0.45913  -0.45811
 Alpha  occ. eigenvalues --   -0.44849  -0.44771  -0.44034  -0.43757  -0.42955
 Alpha  occ. eigenvalues --   -0.42359  -0.41312  -0.40788  -0.40347  -0.38925
 Alpha  occ. eigenvalues --   -0.38039  -0.37431  -0.35993  -0.35739  -0.35224
 Alpha  occ. eigenvalues --   -0.34727  -0.34487  -0.34275  -0.33381  -0.31674
 Alpha  occ. eigenvalues --   -0.30543  -0.29605  -0.29565  -0.29543
 Alpha virt. eigenvalues --   -0.02508  -0.00512  -0.00122   0.00236   0.00647
 Alpha virt. eigenvalues --    0.01212   0.01913   0.02828   0.03132   0.03463
 Alpha virt. eigenvalues --    0.03689   0.04094   0.04491   0.05581   0.05819
 Alpha virt. eigenvalues --    0.08208   0.08605   0.08738   0.08856   0.09358
 Alpha virt. eigenvalues --    0.10018   0.10630   0.12159   0.12467   0.13375
 Alpha virt. eigenvalues --    0.13504   0.13893   0.14354   0.14412   0.15198
 Alpha virt. eigenvalues --    0.15843   0.15997   0.16215   0.17146   0.17577
 Alpha virt. eigenvalues --    0.18171   0.18309   0.18730   0.18902   0.19421
 Alpha virt. eigenvalues --    0.19708   0.20135   0.20949   0.21042   0.21419
 Alpha virt. eigenvalues --    0.21650   0.21885   0.22411   0.23095   0.23245
 Alpha virt. eigenvalues --    0.23580   0.23701   0.24057   0.24594   0.25250
 Alpha virt. eigenvalues --    0.25883   0.26614   0.26870   0.27638   0.28156
 Alpha virt. eigenvalues --    0.28423   0.28819   0.29442   0.30431   0.31285
 Alpha virt. eigenvalues --    0.31866   0.32096   0.32295   0.32644   0.32921
 Alpha virt. eigenvalues --    0.33234   0.33413   0.34226   0.34821   0.34831
 Alpha virt. eigenvalues --    0.35322   0.35687   0.36117   0.36475   0.36865
 Alpha virt. eigenvalues --    0.37373   0.37543   0.37880   0.38576   0.38731
 Alpha virt. eigenvalues --    0.39147   0.39446   0.39808   0.40482   0.40928
 Alpha virt. eigenvalues --    0.41549   0.42054   0.42532   0.42692   0.43283
 Alpha virt. eigenvalues --    0.44392   0.44630   0.45784   0.46290   0.46588
 Alpha virt. eigenvalues --    0.47373   0.47499   0.47999   0.48202   0.48686
 Alpha virt. eigenvalues --    0.49251   0.49425   0.49710   0.50804   0.50998
 Alpha virt. eigenvalues --    0.51071   0.51622   0.52106   0.52224   0.52655
 Alpha virt. eigenvalues --    0.53007   0.53430   0.53700   0.53914   0.54335
 Alpha virt. eigenvalues --    0.54650   0.54794   0.55073   0.55417   0.55630
 Alpha virt. eigenvalues --    0.56451   0.56670   0.56967   0.57336   0.57968
 Alpha virt. eigenvalues --    0.58473   0.58774   0.59982   0.60265   0.60495
 Alpha virt. eigenvalues --    0.60709   0.60985   0.61106   0.61984   0.62670
 Alpha virt. eigenvalues --    0.63621   0.63811   0.64163   0.64593   0.64866
 Alpha virt. eigenvalues --    0.65164   0.65317   0.65927   0.66179   0.66456
 Alpha virt. eigenvalues --    0.66592   0.67163   0.67515   0.68571   0.69031
 Alpha virt. eigenvalues --    0.69122   0.69718   0.69868   0.70715   0.70891
 Alpha virt. eigenvalues --    0.71163   0.71429   0.71631   0.71745   0.71881
 Alpha virt. eigenvalues --    0.72190   0.72495   0.72865   0.73032   0.73209
 Alpha virt. eigenvalues --    0.73610   0.73948   0.74119   0.74500   0.75106
 Alpha virt. eigenvalues --    0.75419   0.75619   0.76065   0.76350   0.76811
 Alpha virt. eigenvalues --    0.77309   0.77495   0.77678   0.77767   0.78090
 Alpha virt. eigenvalues --    0.78188   0.79062   0.79462   0.79648   0.80219
 Alpha virt. eigenvalues --    0.80395   0.80651   0.81118   0.81377   0.82178
 Alpha virt. eigenvalues --    0.82229   0.82552   0.82729   0.83165   0.83486
 Alpha virt. eigenvalues --    0.83690   0.83765   0.84155   0.84360   0.84484
 Alpha virt. eigenvalues --    0.84613   0.85256   0.85656   0.85879   0.85972
 Alpha virt. eigenvalues --    0.86056   0.86474   0.87037   0.87340   0.87460
 Alpha virt. eigenvalues --    0.87917   0.88306   0.88744   0.89196   0.89260
 Alpha virt. eigenvalues --    0.89623   0.90062   0.90497   0.90792   0.91022
 Alpha virt. eigenvalues --    0.91246   0.92241   0.92356   0.92596   0.93381
 Alpha virt. eigenvalues --    0.93831   0.94100   0.94702   0.95287   0.95859
 Alpha virt. eigenvalues --    0.96580   0.97206   0.97389   0.98976   0.99719
 Alpha virt. eigenvalues --    0.99996   1.00923   1.01637   1.02534   1.02781
 Alpha virt. eigenvalues --    1.03161   1.04267   1.05067   1.05910   1.06497
 Alpha virt. eigenvalues --    1.07188   1.07704   1.09125   1.09360   1.10365
 Alpha virt. eigenvalues --    1.11019   1.11692   1.11981   1.12274   1.13056
 Alpha virt. eigenvalues --    1.13364   1.13460   1.14562   1.15282   1.15862
 Alpha virt. eigenvalues --    1.16354   1.16548   1.17675   1.19460   1.19892
 Alpha virt. eigenvalues --    1.20159   1.21350   1.22145   1.22668   1.23512
 Alpha virt. eigenvalues --    1.23944   1.24439   1.25048   1.25723   1.26910
 Alpha virt. eigenvalues --    1.27365   1.27959   1.28113   1.28901   1.29008
 Alpha virt. eigenvalues --    1.29509   1.29624   1.29979   1.30280   1.31131
 Alpha virt. eigenvalues --    1.31905   1.32440   1.32802   1.33066   1.34343
 Alpha virt. eigenvalues --    1.34836   1.35096   1.35687   1.35925   1.36018
 Alpha virt. eigenvalues --    1.36431   1.36569   1.37066   1.37269   1.37679
 Alpha virt. eigenvalues --    1.38601   1.39206   1.39460   1.40422   1.41316
 Alpha virt. eigenvalues --    1.42247   1.44173   1.45975   1.47449   1.48014
 Alpha virt. eigenvalues --    1.48784   1.49834   1.51049   1.52912   1.54597
 Alpha virt. eigenvalues --    1.56330   1.56845   1.57911   1.58459   1.60191
 Alpha virt. eigenvalues --    1.60985   1.61519   1.62727   1.63578   1.64718
 Alpha virt. eigenvalues --    1.64817   1.65979   1.67769   1.68391   1.68787
 Alpha virt. eigenvalues --    1.69301   1.70027   1.70307   1.70856   1.71198
 Alpha virt. eigenvalues --    1.72935   1.73120   1.73303   1.73914   1.74794
 Alpha virt. eigenvalues --    1.75121   1.75662   1.76438   1.76726   1.76738
 Alpha virt. eigenvalues --    1.77163   1.77673   1.78139   1.78374   1.79132
 Alpha virt. eigenvalues --    1.79409   1.79821   1.80176   1.80369   1.80584
 Alpha virt. eigenvalues --    1.81026   1.81453   1.81726   1.82466   1.82610
 Alpha virt. eigenvalues --    1.83673   1.83908   1.84132   1.84642   1.85654
 Alpha virt. eigenvalues --    1.86011   1.86325   1.86724   1.87280   1.87629
 Alpha virt. eigenvalues --    1.88025   1.88585   1.88807   1.89011   1.89531
 Alpha virt. eigenvalues --    1.90077   1.90681   1.91018   1.91812   1.92262
 Alpha virt. eigenvalues --    1.92632   1.93486   1.93759   1.94787   1.95022
 Alpha virt. eigenvalues --    1.96312   1.97782   1.98185   1.99061   1.99675
 Alpha virt. eigenvalues --    2.00176   2.00468   2.01060   2.01631   2.01961
 Alpha virt. eigenvalues --    2.02510   2.02716   2.02897   2.03648   2.04135
 Alpha virt. eigenvalues --    2.04887   2.05286   2.06258   2.06399   2.06600
 Alpha virt. eigenvalues --    2.06726   2.07425   2.08573   2.08903   2.09919
 Alpha virt. eigenvalues --    2.10527   2.10955   2.11846   2.12123   2.12315
 Alpha virt. eigenvalues --    2.14513   2.16463   2.17310   2.17836   2.18354
 Alpha virt. eigenvalues --    2.18564   2.19156   2.19434   2.21120   2.22074
 Alpha virt. eigenvalues --    2.22456   2.23063   2.23475   2.23665   2.24746
 Alpha virt. eigenvalues --    2.26502   2.26830   2.29257   2.29643   2.30463
 Alpha virt. eigenvalues --    2.30919   2.31101   2.31517   2.31807   2.32464
 Alpha virt. eigenvalues --    2.33626   2.34270   2.35115   2.35529   2.36172
 Alpha virt. eigenvalues --    2.36722   2.37118   2.37540   2.38241   2.38469
 Alpha virt. eigenvalues --    2.38556   2.39065   2.39310   2.39548   2.40286
 Alpha virt. eigenvalues --    2.40839   2.41738   2.42260   2.43573   2.45241
 Alpha virt. eigenvalues --    2.46173   2.46945   2.48622   2.49080   2.49371
 Alpha virt. eigenvalues --    2.52476   2.53431   2.54800   2.56182   2.57969
 Alpha virt. eigenvalues --    2.59186   2.59300   2.60146   2.62457   2.64983
 Alpha virt. eigenvalues --    2.66563   2.66799   2.67533   2.68004   2.68222
 Alpha virt. eigenvalues --    2.68339   2.68505   2.68570   2.68770   2.68859
 Alpha virt. eigenvalues --    2.69022   2.69352   2.69485   2.69550   2.70848
 Alpha virt. eigenvalues --    2.72007   2.72577   2.75860   2.76336   2.77826
 Alpha virt. eigenvalues --    2.78548   2.80061   2.80280   2.80998   2.82205
 Alpha virt. eigenvalues --    2.82575   2.82710   2.83708   2.84362   2.85058
 Alpha virt. eigenvalues --    2.86374   2.86876   2.88115   2.88854   2.90964
 Alpha virt. eigenvalues --    2.92466   2.92644   2.95540   2.98092   2.98706
 Alpha virt. eigenvalues --    2.99083   3.01278   3.03005   3.03908   3.04160
 Alpha virt. eigenvalues --    3.04753   3.07151   3.08105   3.08630   3.10223
 Alpha virt. eigenvalues --    3.10518   3.14346   3.15655   3.15915   3.19060
 Alpha virt. eigenvalues --    3.19902   3.21072   3.22028   3.22623   3.22732
 Alpha virt. eigenvalues --    3.23226   3.23872   3.28566   3.28993   3.31229
 Alpha virt. eigenvalues --    3.36824   3.38739   3.39177   3.42249   3.44365
 Alpha virt. eigenvalues --    3.45736   3.49818   3.51895   3.54034   3.57073
 Alpha virt. eigenvalues --    3.58165   3.59551   3.61042   3.61543   3.61809
 Alpha virt. eigenvalues --    3.62138   3.64034   3.69388   3.70285   3.74854
 Alpha virt. eigenvalues --    3.75189   3.76146   3.76750   3.78036   3.78850
 Alpha virt. eigenvalues --    3.80302   3.90267   3.93519   4.02176   4.05725
 Electronic spatial extent (au):  <R**2>=          23960.2247
 Charge=              0.0000 electrons
 Dipole moment (field-independent basis, Debye):
    X=             28.7835    Y=              8.4246    Z=             -0.3509  Tot=             29.9931
 Quadrupole moment (field-independent basis, Debye-Ang):
   XX=           -404.0821   YY=           -239.0093   ZZ=           -255.3099
   XY=            -38.8072   XZ=             16.4780   YZ=             21.8749
 Traceless Quadrupole moment (field-independent basis, Debye-Ang):
   XX=           -104.6150   YY=             60.4578   ZZ=             44.1572
   XY=            -38.8072   XZ=             16.4780   YZ=             21.8749
 Octapole moment (field-independent basis, Debye-Ang**2):
  XXX=            884.0331  YYY=             14.7285  ZZZ=             17.1854  XYY=             95.4217
  XXY=            342.5177  XXZ=           -130.6153  XZZ=              2.7239  YZZ=             -6.1996
  YYZ=              5.8617  XYZ=              4.4431
 Hexadecapole moment (field-independent basis, Debye-Ang**3):
 XXXX=         -22198.8562 YYYY=          -7243.4758 ZZZZ=          -5638.4523 XXXY=          -1354.5182
 XXXZ=            351.2153 YYYX=             57.4758 YYYZ=            194.4475 ZZZX=            176.5192
 ZZZY=            138.3123 XXYY=          -4373.9874 XXZZ=          -3842.4870 YYZZ=          -1954.6610
 XXYZ=            211.0947 YYXZ=            -24.1893 ZZXY=           -166.0528
 N-N= 6.625090952418D+03 E-N=-2.778698092046D+04  KE= 6.117233478030D+03
 D1PCM: PCM CHGder 1st derivatives, ID1Alg=3 FixD1E=F DoIter=F DoCFld=F I1PDM=0.
 Calling FoFJK, ICntrl=      2127 FMM=T ISym2X=0 I1Cent= 0 IOpClX= 0 NMat=1 NMatS=1 NMatT=0.
 -------------------------------------------------------------------
 Center     Atomic                   Forces (Hartrees/Bohr)
 Number     Number              X              Y              Z
 -------------------------------------------------------------------
      1       25          -0.000000020   -0.000002578   -0.000018277
      2        6           0.000015100    0.000001488    0.000010955
      3        8          -0.000013088   -0.000004058   -0.000003060
      4        6          -0.000003973    0.000002005   -0.000004026
      5        8           0.000002324   -0.000000126   -0.000000109
      6        6           0.000001634   -0.000003666   -0.000004485
      7        7           0.000011582   -0.000007820    0.000006519
      8        6          -0.000244309   -0.000367116    0.000136619
      9        6           0.000012919    0.000019905   -0.000013236
     10        6           0.000004311   -0.000003665    0.000004255
     11        1           0.000260081    0.000374732   -0.000142873
     12        1          -0.000001490    0.000000173    0.000003013
     13        7          -0.000005323    0.000010023    0.000009193
     14        6          -0.000000171    0.000001721   -0.000002433
     15        6          -0.000006284   -0.000008378   -0.000001911
     16        6           0.000002705    0.000004285    0.000003792
     17        6           0.000000461    0.000003505    0.000002094
     18        6          -0.000012952    0.000029116   -0.000006601
     19        1          -0.000001036    0.000002128    0.000001147
     20        1           0.000012179   -0.000008716    0.000011043
     21        7           0.000003264    0.000000242   -0.000006766
     22        6           0.000002591    0.000004166   -0.000003514
     23        6          -0.000000379    0.000002834   -0.000004574
     24        1          -0.000000030   -0.000014913   -0.000002301
     25        6          -0.000043067   -0.000020395    0.000018404
     26        1          -0.000003074   -0.000001176   -0.000001007
     27        6           0.000000071   -0.000000717   -0.000000677
     28        1           0.000001648    0.000002912   -0.000003173
     29        1           0.000000186    0.000002808   -0.000000869
     30        8          -0.000001147   -0.000003565    0.000000411
     31       16           0.000000315   -0.000003032   -0.000001439
     32       16           0.000000451   -0.000001065    0.000000724
     33        6           0.000004744    0.000001434    0.000005168
     34        6           0.000000409   -0.000001109    0.000001060
     35        6          -0.000000806   -0.000005666    0.000005633
     36        6          -0.000000673   -0.000002631    0.000002036
     37        6          -0.000001150   -0.000003239    0.000002143
     38        6          -0.000001781   -0.000001700    0.000001677
     39        6           0.000000462    0.000004127   -0.000002724
     40        1          -0.000000745   -0.000002701    0.000002584
     41        1          -0.000000873   -0.000003848    0.000003155
     42        1          -0.000000623   -0.000003102    0.000001990
     43        6           0.000002203   -0.000005027    0.000000057
     44        6           0.000000125   -0.000001824   -0.000001440
     45        6          -0.000000026   -0.000001795   -0.000000564
     46        6          -0.000001391   -0.000001348   -0.000001200
     47        6           0.000001588   -0.000000119   -0.000004565
     48        6           0.000000351    0.000001517   -0.000000709
     49        1           0.000000017   -0.000001902   -0.000001490
     50        1           0.000000678   -0.000001405   -0.000003252
     51        1           0.000000846   -0.000000488   -0.000002682
     52        6          -0.000000561    0.000001809   -0.000001611
     53        1           0.000001587    0.000002129   -0.000002639
     54        6           0.000000904    0.000002611   -0.000003952
     55        1          -0.000000538   -0.000000072   -0.000000259
     56        1          -0.000001066   -0.000001407    0.000000757
     57        6          -0.000002125    0.000001132    0.000003666
     58        6           0.000005495    0.000003728   -0.000000346
     59        1          -0.000000761    0.000001810    0.000002989
     60        1           0.000000136    0.000002854    0.000000970
     61       35          -0.000001907    0.000005173    0.000006707
 -------------------------------------------------------------------
 Cartesian Forces:  Max     0.000374732 RMS     0.000049532
 NDeriv=    183 NFrqRd=  0 NDerD0=      0 MskFDP=       0 MskDFD=       0 MskDF0=       0
 Re-enter D2Numr:  atom  11 IXYZ=2 step-down number 1
 Basis read from rwf:  (5D, 7F)
   749 basis functions,  1349 primitive gaussians,   800 cartesian basis functions
   174 alpha electrons      174 beta electrons
       nuclear repulsion energy      6625.1656511754 Hartrees.
 NAtoms=   61 NActive=   61 NUniq=   61 SFac= 1.00D+00 NAtFMM=   60 NAOKFM=T Big=T
 Integral buffers will be    131072 words long.
 Raffenetti 2 integral format.
 Two-electron integral symmetry is turned off.
 Nuclear repulsion after empirical dispersion term =     6625.0962133290 Hartrees.
 ------------------------------------------------------------------------------
 Polarizable Continuum Model (PCM)
 =================================
 Model                : PCM.
 Atomic radii         : UFF (Universal Force Field).
 Polarization charges : Total charges.
 Charge compensation  : None.
 Solution method      : On-the-fly selection.
 Cavity type          : Scaled VdW (van der Waals Surface) (Alpha=1.100).
 Cavity algorithm     : GePol (No added spheres)
                        Default sphere list used, NSphG=   61.
                        Lebedev-Laikov grids with approx.  5.0 points / Ang**2.
                        Smoothing algorithm: York/Karplus (Gamma=1.0000).
                        Polarization charges: spherical gaussians, with
                                              point-specific exponents (IZeta= 3).
                        Self-potential: point-specific (ISelfS= 7).
                        Self-field    : sphere-specific E.n sum rule (ISelfD= 2).
 1st derivatives      : Analytical E(r).r(x)/FMM algorithm (CHGder, D1EAlg=3).
                        Cavity 1st derivative terms included.
 Solvent              : TetraHydroFuran, Eps=   7.425700 Eps(inf)=   1.974025
 ------------------------------------------------------------------------------
 One-electron integrals computed using PRISM.
 NBasis=   749 RedAO= T EigKep=  2.25D-04  NBF=   749
 NBsUse=   749 1.00D-06 EigRej= -1.00D+00 NBFU=   749
 Initial guess from the checkpoint file:  "checkpoint.chk"
 B after Tr=     0.000000    0.000000    0.000005
         Rot=    1.000000    0.000001   -0.000000   -0.000000 Ang=   0.00 deg.
 Requested convergence on RMS density matrix=1.00D-08 within 128 cycles.
 Requested convergence on MAX density matrix=1.00D-06.
 Requested convergence on             energy=1.00D-06.
 No special actions if energy rises.
 Inv3:  Mode=1 IEnd=    68516523.
 Iteration    1 A*A^-1 deviation from unit magnitude is 3.55D-15 for   3123.
 Iteration    1 A*A^-1 deviation from orthogonality  is 2.22D-15 for   3243    445.
 Iteration    1 A^-1*A deviation from unit magnitude is 3.33D-15 for   2280.
 Iteration    1 A^-1*A deviation from orthogonality  is 1.49D-13 for   4139   4127.
