 Entering Gaussian System, Link 0=g16
 Initial command:
 /home1/apps/gaussian/16rA.03/g16/l1.exe "/tmp/Gau-101836.inp" -scrdir="/tmp/"
 Entering Link 1 = /home1/apps/gaussian/16rA.03/g16/l1.exe PID=    101838.
  
 Copyright (c) 1988,1990,1992,1993,1995,1998,2003,2009,2016,
            Gaussian, Inc.  All Rights Reserved.
  
 This is part of the Gaussian(R) 16 program.  It is based on
 the Gaussian(R) 09 system (copyright 2009, Gaussian, Inc.),
 the Gaussian(R) 03 system (copyright 2003, Gaussian, Inc.),
 the Gaussian(R) 98 system (copyright 1998, Gaussian, Inc.),
 the Gaussian(R) 94 system (copyright 1995, Gaussian, Inc.),
 the Gaussian 92(TM) system (copyright 1992, Gaussian, Inc.),
 the Gaussian 90(TM) system (copyright 1990, Gaussian, Inc.),
 the Gaussian 88(TM) system (copyright 1988, Gaussian, Inc.),
 the Gaussian 86(TM) system (copyright 1986, Carnegie Mellon
 University), and the Gaussian 82(TM) system (copyright 1983,
 Carnegie Mellon University). Gaussian is a federally registered
 trademark of Gaussian, Inc.
  
 This software contains proprietary and confidential information,
 including trade secrets, belonging to Gaussian, Inc.
  
 This software is provided under written license and may be
 used, copied, transmitted, or stored only in accord with that
 written license.
  
 The following legend is applicable only to US Government
 contracts under FAR:
  
                    RESTRICTED RIGHTS LEGEND
  
 Use, reproduction and disclosure by the US Government is
 subject to restrictions as set forth in subparagraphs (a)
 and (c) of the Commercial Computer Software - Restricted
 Rights clause in FAR 52.227-19.
  
 Gaussian, Inc.
 340 Quinnipiac St., Bldg. 40, Wallingford CT 06492
  
  
 ---------------------------------------------------------------
 Warning -- This program may not be used in any manner that
 competes with the business of Gaussian, Inc. or will provide
 assistance to any competitor of Gaussian, Inc.  The licensee
 of this program is prohibited from giving any competitor of
 Gaussian, Inc. access to this program.  By using this program,
 the user acknowledges that Gaussian, Inc. is engaged in the
 business of creating and licensing software in the field of
 computational chemistry and represents and warrants to the
 licensee that it is not a competitor of Gaussian, Inc. and that
 it will not use this program in any manner prohibited above.
 ---------------------------------------------------------------
  

 Cite this work as:
 Gaussian 16, Revision A.03,
 M. J. Frisch, G. W. Trucks, H. B. Schlegel, G. E. Scuseria, 
 M. A. Robb, J. R. Cheeseman, G. Scalmani, V. Barone, 
 G. A. Petersson, H. Nakatsuji, X. Li, M. Caricato, A. V. Marenich, 
 J. Bloino, B. G. Janesko, R. Gomperts, B. Mennucci, H. P. Hratchian, 
 J. V. Ortiz, A. F. Izmaylov, J. L. Sonnenberg, D. Williams-Young, 
 F. Ding, F. Lipparini, F. Egidi, J. Goings, B. Peng, A. Petrone, 
 T. Henderson, D. Ranasinghe, V. G. Zakrzewski, J. Gao, N. Rega, 
 G. Zheng, W. Liang, M. Hada, M. Ehara, K. Toyota, R. Fukuda, 
 J. Hasegawa, M. Ishida, T. Nakajima, Y. Honda, O. Kitao, H. Nakai, 
 T. Vreven, K. Throssell, J. A. Montgomery, Jr., J. E. Peralta, 
 F. Ogliaro, M. J. Bearpark, J. J. Heyd, E. N. Brothers, K. N. Kudin, 
 V. N. Staroverov, T. A. Keith, R. Kobayashi, J. Normand, 
 K. Raghavachari, A. P. Rendell, J. C. Burant, S. S. Iyengar, 
 J. Tomasi, M. Cossi, J. M. Millam, M. Klene, C. Adamo, R. Cammi, 
 J. W. Ochterski, R. L. Martin, K. Morokuma, O. Farkas, 
 J. B. Foresman, and D. J. Fox, Gaussian, Inc., Wallingford CT, 2016.
 
 ******************************************
 Gaussian 16:  ES64L-G16RevA.03 25-Dec-2016
                26-Dec-2022 
 ******************************************
 %Chk=checkpoint.chk
 %NProcShared=12
 Will use up to   12 processors via shared memory.
 ---------------------------------------------------------------
 # wB97XD Gen Opt=(QST3, Restart) SCRF=(Solvent=TetraHydroFuran)
 ---------------------------------------------------------------
 1/5=1,18=20,26=3,27=203,35=1/3(2);
 2/9=110/2;
 99//99;
 2/9=110/2;
 3/5=7,6=1,11=2,25=1,30=1,70=2205,71=1,72=20,74=-58,82=7/1,2,3;
 4/5=5,16=3,69=1/1;
 5/5=2,38=5,53=20/2;
 7//1,2,3,16;
 1/5=1,18=20,26=3,27=203/3(-5);
 2/9=110/2;
 6/7=2,8=2,9=2,10=2,19=2,28=1/1;
 99/9=1/99;

 GradGradGradGradGradGradGradGradGradGradGradGradGradGradGradGradGradGrad
 Berny optimization.
 Restoring state from the checkpoint file "checkpoint.chk".
 ONIOM results not found on unit 2.
 Title:  Mn Transition State Reactant
 Route:  # wB97XD Gen Opt=(QST3) SCRF=(Solvent=TetraHydroFuran)
 FormGI is forming the generalized inverse of G from B-inverse, IUseBI=4.
 Internal  Forces:  Max     0.002467999 RMS     0.000436670
 Search for a saddle point.
 Step number  40 out of a maximum of  378
 All quantities printed in internal units (Hartrees-Bohrs-Radians)
 Update second derivatives using D2CorX and points   39   40
 ITU=  0  0  0  0  0  0  0  0  0  0  0  0  0  0  0  0  0  0  0  0
 ITU=  0  0  0  0  0  0  0  0  0  0  0  0  0  0  0  0  0  0  0  0
     Eigenvalues ---   -4.13146  -0.00456   0.00563   0.00619   0.00951
     Eigenvalues ---    0.01032   0.01233   0.01299   0.01479   0.01509
     Eigenvalues ---    0.01572   0.01583   0.01639   0.01722   0.01732
     Eigenvalues ---    0.01768   0.01778   0.01804   0.01823   0.01842
     Eigenvalues ---    0.01901   0.01908   0.01913   0.01961   0.01986
     Eigenvalues ---    0.01990   0.02005   0.02021   0.02024   0.02045
     Eigenvalues ---    0.02066   0.02124   0.02127   0.02134   0.02151
     Eigenvalues ---    0.02164   0.02168   0.02173   0.02178   0.02195
     Eigenvalues ---    0.02229   0.02286   0.02293   0.02301   0.02310
     Eigenvalues ---    0.02319   0.02332   0.02408   0.02515   0.02624
     Eigenvalues ---    0.02740   0.02947   0.03341   0.03524   0.04023
     Eigenvalues ---    0.04766   0.05026   0.05111   0.05124   0.05294
     Eigenvalues ---    0.05567   0.05722   0.05778   0.06083   0.06686
     Eigenvalues ---    0.06956   0.07381   0.07876   0.08829   0.09059
     Eigenvalues ---    0.09311   0.09680   0.10502   0.10814   0.12822
     Eigenvalues ---    0.12917   0.14211   0.14696   0.15422   0.15877
     Eigenvalues ---    0.15988   0.15990   0.15993   0.15996   0.15997
     Eigenvalues ---    0.15998   0.16000   0.16000   0.16001   0.16001
     Eigenvalues ---    0.16003   0.16009   0.16031   0.16044   0.16131
     Eigenvalues ---    0.16950   0.17573   0.18748   0.19085   0.19458
     Eigenvalues ---    0.20766   0.21217   0.21675   0.21769   0.21805
     Eigenvalues ---    0.22002   0.22064   0.22148   0.22224   0.22249
     Eigenvalues ---    0.22570   0.22801   0.22844   0.23002   0.23283
     Eigenvalues ---    0.23465   0.23642   0.23891   0.24107   0.24217
     Eigenvalues ---    0.24379   0.28335   0.30658   0.31793   0.32018
     Eigenvalues ---    0.32494   0.33092   0.33423   0.33574   0.33744
     Eigenvalues ---    0.34108   0.34267   0.34513   0.34516   0.34526
     Eigenvalues ---    0.34536   0.34538   0.34564   0.34587   0.34624
     Eigenvalues ---    0.34629   0.34872   0.34912   0.34952   0.36497
     Eigenvalues ---    0.37043   0.37128   0.37322   0.38658   0.39146
     Eigenvalues ---    0.39532   0.39793   0.40517   0.40696   0.40930
     Eigenvalues ---    0.41283   0.41475   0.42021   0.42446   0.43009
     Eigenvalues ---    0.43686   0.43991   0.44308   0.44375   0.45653
     Eigenvalues ---    0.46133   0.46707   0.46841   0.48854   0.48886
     Eigenvalues ---    0.48965   0.50488   0.50501   0.50908   0.52251
     Eigenvalues ---    0.53807   0.54624   0.55448   1.36785   1.38326
     Eigenvalues ---    1.40236   1.41739   3.744261000.000001000.00000
     Eigenvalues --- 1000.000001000.000001000.000001000.000001000.00000
     Eigenvalues --- 1000.000001000.000001000.000001000.000001000.00000
     Eigenvalues --- 1000.000001000.000001000.000001000.000001000.00000
     Eigenvalues --- 1000.000001000.000001000.000001000.000001000.00000
     Eigenvalues --- 1000.000001000.000001000.000001000.000001000.00000
     Eigenvalues --- 1000.000001000.000001000.000001000.000001000.00000
     Eigenvalues --- 1000.000001000.000001000.000001000.000001000.00000
     Eigenvalues --- 1000.000001000.000001000.000001000.000001000.00000
     Eigenvalues --- 1000.000001000.000001000.000001000.000001000.00000
     Eigenvalues --- 1000.000001000.000001000.000001000.000001000.00000
     Eigenvalues --- 1000.000001000.000001000.000001000.000001000.00000
     Eigenvalues --- 1000.000001000.000001000.000001000.000001000.00000
     Eigenvalues --- 1000.000001000.000001000.000001000.000001000.00000
     Eigenvalues --- 1000.000001000.000001000.000001000.000001000.00000
     Eigenvalues --- 1000.000001000.000001000.000001000.000001000.00000
     Eigenvalues --- 1000.000001000.000001000.000001000.000001000.00000
     Eigenvalues --- 1000.000001000.000001000.000001000.000001000.00000
     Eigenvalues --- 1000.000001000.000001000.000001000.000001000.00000
     Eigenvalues --- 1000.000001000.000001000.000001000.000001000.00000
     Eigenvalues --- 1000.000001000.000001000.000001000.000001000.00000
     Eigenvalues --- 1000.000001000.000001000.000001000.000001000.00000
     Eigenvalues --- 1000.000001000.000001000.000001000.000001000.00000
     Eigenvalues --- 1000.000001000.000001000.000001000.000001000.00000
     Eigenvalues --- 1000.000001000.000001000.000001000.000001000.00000
     Eigenvalues --- 1000.000001000.000001000.000001000.000001000.00000
     Eigenvalues --- 1000.000001000.000001000.000001000.000001000.00000
     Eigenvalues --- 1000.000001000.000001000.000001000.000001000.00000
     Eigenvalues --- 1000.000001000.000001000.000001000.000001000.00000
     Eigenvalues --- 1000.000001000.000001000.000001000.000001000.00000
     Eigenvalues --- 1000.000001000.000001000.000001000.000001000.00000
     Eigenvalues --- 1000.000001000.000001000.000001000.000001000.00000
     Eigenvalues --- 1000.000001000.000001000.000001000.000001000.00000
     Eigenvalues --- 1000.000001000.000001000.000001000.000001000.00000
     Eigenvalues --- 1000.000001000.000001000.000001000.000001000.00000
     Eigenvalues --- 1000.000001000.000001000.000001000.000001000.00000
     Eigenvalues --- 1000.000001000.000001000.000001000.000001000.00000
     Eigenvalues --- 1000.000001000.000001000.000001000.000001000.00000
     Eigenvalues --- 1000.000001000.000001000.000001000.000001000.00000
     Eigenvalues --- 1000.000001000.000001000.000001000.000001000.00000
     Eigenvalues --- 1000.000001000.000001000.000001000.000001000.00000
     Eigenvalues --- 1000.000001000.000001000.000001000.000001000.00000
     Eigenvalues --- 1000.000001000.000001000.000001000.000001000.00000
     Eigenvalues --- 1000.000001000.000001000.000001000.000001000.00000
     Eigenvalues --- 1000.000001000.000001000.000001000.000001000.00000
     Eigenvalues --- 1000.000001000.000001000.000001000.000001000.00000
     Eigenvalues --- 1000.000001000.00000
 Eigenvectors required to have negative eigenvalues:
                          R5        R32       R20       R22       R7
   1                    0.44290  -0.33531   0.22385  -0.20694  -0.19065
                          R4        A64       A44       D54       D25
   1                   -0.16444   0.16231   0.15792   0.15302  -0.14177
 QST in optimization variable space.
                        Tangent   TS vect  // Eig F  Eigenval
   1         R1         0.00302  -0.00121   0.00046  -4.13146
   2         R2         0.00255   0.00588  -0.00182  -0.00456
   3         R3        -0.00568  -0.00182  -0.00037   0.00563
   4         R4        -0.02996  -0.16444  -0.00033   0.00619
   5         R5         0.52158   0.44290   0.00023   0.00951
   6         R6         0.00020   0.07862  -0.00022   0.01032
   7         R7        -0.15966  -0.19065   0.00010   0.01233
   8         R8        -0.00045  -0.00084   0.00039   0.01299
   9         R9        -0.00028   0.00157   0.00035   0.01479
  10         R10        0.00005  -0.00019   0.00007   0.01509
  11         R11       -0.01763  -0.01331  -0.00037   0.01572
  12         R12       -0.00775   0.00193  -0.00031   0.01583
  13         R13       -0.02458  -0.01437  -0.00058   0.01639
  14         R14       -0.01467  -0.02672   0.00012   0.01722
  15         R15       -0.00842  -0.01105  -0.00041   0.01732
  16         R16       -0.00007   0.00115   0.00051   0.01768
  17         R17       -0.01903  -0.01214   0.00017   0.01778
  18         R18       -0.01186   0.01291  -0.00024   0.01804
  19         R19       -0.00001  -0.00210   0.00000   0.01823
  20         R20        0.09454   0.22385  -0.00005   0.01842
  21         R21       -0.01539   0.00299  -0.00023   0.01901
  22         R22       -0.32114  -0.20694   0.00013   0.01908
  23         R23       -0.01455   0.03305  -0.00002   0.01913
  24         R24       -0.01756  -0.04867  -0.00032   0.01961
  25         R25       -0.01584   0.03700  -0.00020   0.01986
  26         R26        0.00255  -0.00735   0.00003   0.01990
  27         R27       -0.01250  -0.04696   0.00027   0.02005
  28         R28        0.00004   0.00136   0.00011   0.02021
  29         R29       -0.00286  -0.00356  -0.00032   0.02024
  30         R30       -0.01529   0.01241   0.00025   0.02045
  31         R31       -0.00212   0.01067  -0.00043   0.02066
  32         R32       -0.08347  -0.33531  -0.00013   0.02124
  33         R33       -0.01396   0.01032   0.00011   0.02127
  34         R34        0.02241  -0.03364   0.00020   0.02134
  35         R35        0.01185  -0.00588  -0.00005   0.02151
  36         R36       -0.00508   0.01821   0.00004   0.02164
  37         R37       -0.00880  -0.00164  -0.00012   0.02168
  38         R38        0.00883   0.00295  -0.00010   0.02173
  39         R39        0.00004  -0.00108  -0.00001   0.02178
  40         R40       -0.00150  -0.00341   0.00040   0.02195
  41         R41       -0.03829  -0.06694   0.00039   0.02229
  42         R42        0.00059   0.00026   0.00046   0.02286
  43         R43        0.01294   0.04226  -0.00003   0.02293
  44         R44       -0.05708   0.00164   0.00023   0.02301
  45         R45       -0.05954  -0.04067   0.00009   0.02310
  46         R46        0.05567   0.00022   0.00017   0.02319
  47         R47       -0.04751  -0.02009  -0.00004   0.02332
  48         R48        0.02177  -0.00885   0.00134   0.02408
  49         R49        0.04815  -0.03119  -0.00012   0.02515
  50         R50       -0.05704  -0.00917  -0.00050   0.02624
  51         R51       -0.04327  -0.02007  -0.00093   0.02740
  52         R52        0.00005  -0.00088  -0.00073   0.02947
  53         R53       -0.01533   0.01988  -0.00001   0.03341
  54         R54       -0.01264  -0.00526   0.00115   0.03524
  55         R55       -0.00001  -0.00074   0.00185   0.04023
  56         R56       -0.01297  -0.00707  -0.00027   0.04766
  57         R57        0.00000  -0.00024  -0.00033   0.05026
  58         R58       -0.00076  -0.00204  -0.00008   0.05111
  59         R59       -0.00002   0.00042  -0.00024   0.05124
  60         R60       -0.03766  -0.00678   0.00072   0.05294
  61         R61       -0.01543  -0.01219   0.00134   0.05567
  62         R62       -0.01689  -0.02658   0.00068   0.05722
  63         R63       -0.00055   0.00578  -0.00024   0.05778
  64         R64        0.01506   0.00221   0.00162   0.06083
  65         R65       -0.00000  -0.00071  -0.00042   0.06686
  66         R66        0.01583  -0.00379  -0.00088   0.06956
  67         R67       -0.00001   0.00024   0.00060   0.07381
  68         R68        0.00126  -0.00561  -0.00008   0.07876
  69         R69       -0.00002   0.00108  -0.00086   0.08829
  70         R70        0.03332  -0.03640   0.00047   0.09059
  71         R71        0.02200  -0.03089  -0.00212   0.09311
  72         R72       -0.00000   0.00052   0.00129   0.09680
  73         R73       -0.00473   0.00986   0.00125   0.10502
  74         R74       -0.00001   0.00092   0.00093   0.10814
  75         R75        0.00009  -0.00094  -0.00306   0.12822
  76         A1        -0.00735   0.01526  -0.00023   0.12917
  77         A2         0.00411  -0.00299  -0.00039   0.14211
  78         A3         0.01475  -0.03931  -0.00114   0.14696
  79         A4         0.02378  -0.05702   0.00064   0.15422
  80         A5         0.04129  -0.03666  -0.00068   0.15877
  81         A6         0.01898   0.02464   0.00004   0.15988
  82         A7        -0.03828  -0.01676  -0.00002   0.15990
  83         A8         0.00231  -0.00708  -0.00008   0.15993
  84         A9         0.02210  -0.05457  -0.00004   0.15996
  85         A10        0.02195   0.06957   0.00001   0.15997
  86         A11        0.01163   0.03990   0.00007   0.15998
  87         A12        0.00206  -0.01597  -0.00003   0.16000
  88         A13        0.01702   0.02582  -0.00010   0.16000
  89         A14        0.01970  -0.05407   0.00004   0.16001
  90         A15        0.04540  -0.03965   0.00008   0.16001
  91         A16        0.03137   0.06592  -0.00016   0.16003
  92         A17       -0.00445   0.02300  -0.00017   0.16009
  93         A18       -0.03417  -0.01975   0.00002   0.16031
  94         A19        0.02119   0.02325  -0.00058   0.16044
  95         A20       -0.06787   0.10874  -0.00089   0.16131
  96         A21       -0.03556   0.01815  -0.00106   0.16950
  97         A22        0.02502   0.03877   0.00107   0.17573
  98         A23       -0.01725  -0.04895   0.00047   0.18748
  99         A24        0.00152  -0.00475  -0.00169   0.19085
 100         A25        0.00038  -0.00616   0.00323   0.19458
 101         A26       -0.00109   0.00252  -0.00041   0.20766
 102         A27       -0.00308   0.00230   0.00044   0.21217
 103         A28        0.00288  -0.02253  -0.00068   0.21675
 104         A29        0.00109   0.02475   0.00048   0.21769
 105         A30       -0.00521  -0.03098   0.00037   0.21805
 106         A31        0.00329  -0.00402   0.00032   0.22002
 107         A32        0.01818   0.02805   0.00036   0.22064
 108         A33       -0.01930  -0.04084   0.00035   0.22148
 109         A34        0.00081   0.00801  -0.00020   0.22224
 110         A35       -0.00228  -0.00876   0.00051   0.22249
 111         A36        0.00432   0.00153   0.00087   0.22570
 112         A37       -0.00206   0.00690   0.00077   0.22801
 113         A38        0.00486   0.00389  -0.00082   0.22844
 114         A39       -0.00951  -0.00627  -0.00045   0.23002
 115         A40        0.00471   0.00182   0.00014   0.23283
 116         A41       -0.01058  -0.02374   0.00040   0.23465
 117         A42        0.00472   0.01044   0.00025   0.23642
 118         A43        0.00588   0.01316  -0.00040   0.23891
 119         A44       -0.04007   0.15792  -0.00072   0.24107
 120         A45       -0.04754   0.08370   0.00116   0.24217
 121         A46       -0.11079   0.13948  -0.00046   0.24379
 122         A47       -0.14326   0.11666   0.00048   0.28335
 123         A48        0.03449  -0.06367   0.00097   0.30658
 124         A49       -0.02216  -0.07817   0.00013   0.31793
 125         A50       -0.05392   0.03550   0.00049   0.32018
 126         A51       -0.04080  -0.05970   0.00021   0.32494
 127         A52        0.04525  -0.08479  -0.00055   0.33092
 128         A53       -0.03981   0.08609  -0.00013   0.33423
 129         A54       -0.00622  -0.00112   0.00047   0.33574
 130         A55        0.00300   0.02637   0.00013   0.33744
 131         A56        0.01027  -0.06203  -0.00034   0.34108
 132         A57       -0.01326   0.03543  -0.00020   0.34267
 133         A58       -0.00123   0.00446   0.00047   0.34513
 134         A59        0.00205  -0.01050   0.00015   0.34516
 135         A60       -0.00081   0.00601   0.00010   0.34526
 136         A61       -0.01825   0.01950   0.00001   0.34536
 137         A62        0.01184  -0.01917   0.00006   0.34538
 138         A63        0.00648  -0.00033   0.00019   0.34564
 139         A64       -0.02223   0.16231   0.00005   0.34587
 140         A65        0.02051  -0.04796  -0.00001   0.34624
 141         A66       -0.02138  -0.00473   0.00004   0.34629
 142         A67        0.02234  -0.00294  -0.00002   0.34872
 143         A68       -0.00166   0.01146   0.00031   0.34912
 144         A69        0.01354   0.00274  -0.00023   0.34952
 145         A70        0.00877  -0.01965  -0.00134   0.36497
 146         A71       -0.02250   0.01790   0.00012   0.37043
 147         A72        0.00163   0.00133   0.00018   0.37128
 148         A73       -0.00069   0.00017   0.00093   0.37322
 149         A74       -0.00093  -0.00126  -0.00017   0.38658
 150         A75       -0.03690   0.08430  -0.00040   0.39146
 151         A76       -0.00067   0.00289   0.00008   0.39532
 152         A77       -0.00078   0.00233  -0.00043   0.39793
 153         A78        0.00145  -0.00515  -0.00023   0.40517
 154         A79        0.01954   0.01739  -0.00034   0.40696
 155         A80        0.00200   0.00251  -0.00028   0.40930
 156         A81       -0.00139  -0.00528   0.00058   0.41283
 157         A82       -0.00068   0.00295   0.00058   0.41475
 158         A83        0.02687  -0.01162   0.00048   0.42021
 159         A84       -0.01178  -0.00669  -0.00009   0.42446
 160         A85       -0.01553   0.01021  -0.00099   0.43009
 161         A86        0.03934  -0.00564   0.00022   0.43686
 162         A87       -0.01260   0.00107   0.00125   0.43991
 163         A88        0.02728   0.01505  -0.00018   0.44308
 164         A89       -0.06757  -0.02066  -0.00031   0.44375
 165         A90        0.01767   0.01049   0.00012   0.45653
 166         A91        0.04066   0.00569   0.00042   0.46133
 167         A92        0.01039   0.00460  -0.00004   0.46707
 168         A93        0.01630   0.01734   0.00039   0.46841
 169         A94       -0.01477  -0.01545  -0.00009   0.48854
 170         A95       -0.00147  -0.00278   0.00035   0.48886
 171         A96       -0.02193   0.00538   0.00066   0.48965
 172         A97        0.00561  -0.01842  -0.00001   0.50488
 173         A98        0.01631   0.01338  -0.00009   0.50501
 174         A99        0.00026  -0.00286   0.00060   0.50908
 175         A100      -0.00001   0.00208  -0.00026   0.52251
 176         A101      -0.00025   0.00067   0.00052   0.53807
 177         A102      -0.01337  -0.00375  -0.00028   0.54624
 178         A103       0.00670   0.00317   0.00034   0.55448
 179         A104       0.00671   0.00059  -0.00014   1.36785
 180         A105      -0.00194   0.00406   0.00035   1.38326
 181         A106       0.00094  -0.00116   0.00010   1.40236
 182         A107       0.00100  -0.00289  -0.00020   1.41739
 183         A108      -0.01274  -0.01895  -0.00050   3.74426
 184         A109      -0.01120   0.00551  -0.000001000.00000
 185         A110       0.02379   0.01347  -0.000001000.00000
 186         A111       0.03545   0.03552  -0.000001000.00000
 187         A112      -0.01060  -0.01110   0.000001000.00000
 188         A113      -0.02488  -0.02447  -0.000001000.00000
 189         A114      -0.00908   0.01299  -0.000001000.00000
 190         A115      -0.03373  -0.00943  -0.000001000.00000
 191         A116       0.04281  -0.00357   0.000001000.00000
 192         A117      -0.02247  -0.00965  -0.000001000.00000
 193         A118       0.04087   0.00963   0.000001000.00000
 194         A119      -0.01856  -0.00004  -0.000001000.00000
 195         A120      -0.00730   0.00001  -0.000001000.00000
 196         A121       0.00367   0.00148  -0.000001000.00000
 197         A122       0.00364  -0.00150  -0.000001000.00000
 198         A123       0.00955  -0.00330   0.000001000.00000
 199         A124      -0.00470   0.00323   0.000001000.00000
 200         A125      -0.00476   0.00036   0.000001000.00000
 201         A126      -0.00535  -0.00897   0.000001000.00000
 202         A127       0.00267   0.00697  -0.000001000.00000
 203         A128       0.00266   0.00234  -0.000001000.00000
 204         A129      -0.02085   0.01795   0.000001000.00000
 205         A130      -0.01135  -0.03784  -0.000001000.00000
 206         A131       0.03229   0.02025  -0.000001000.00000
 207         A132       0.00496  -0.00048   0.000001000.00000
 208         A133      -0.01517   0.01522  -0.000001000.00000
 209         A134       0.01011  -0.01497   0.000001000.00000
 210         A135       0.00529  -0.01171   0.000001000.00000
 211         A136      -0.00325   0.00417   0.000001000.00000
 212         A137      -0.00199   0.00769   0.000001000.00000
 213         A138      -0.00597  -0.00122   0.000001000.00000
 214         A139       0.00292  -0.00196  -0.000001000.00000
 215         A140       0.00305   0.00316  -0.000001000.00000
 216         A141      -0.00478   0.00581   0.000001000.00000
 217         A142       0.00238  -0.00025   0.000001000.00000
 218         A143       0.00239  -0.00550  -0.000001000.00000
 219         A144       0.04482   0.06020  -0.000001000.00000
 220         D1         0.00033   0.01382  -0.000001000.00000
 221         D2        -0.00690  -0.09731  -0.000001000.00000
 222         D3        -0.00468   0.02748   0.000001000.00000
 223         D4        -0.01191  -0.08365  -0.000001000.00000
 224         D5         0.03130   0.09437   0.000001000.00000
 225         D6         0.02407  -0.01677   0.000001000.00000
 226         D7         0.00462   0.00176   0.000001000.00000
 227         D8        -0.00261  -0.10937  -0.000001000.00000
 228         D9         0.01527   0.06620  -0.000001000.00000
 229         D10        0.00804  -0.04494   0.000001000.00000
 230         D11        0.06126   0.03563  -0.000001000.00000
 231         D12        0.15460   0.04818  -0.000001000.00000
 232         D13       -0.01315   0.02967   0.000001000.00000
 233         D14        0.08019   0.04223  -0.000001000.00000
 234         D15        0.08850   0.00931   0.000001000.00000
 235         D16        0.18184   0.02187   0.000001000.00000
 236         D17       -0.00411   0.04916   0.000001000.00000
 237         D18       -0.01248   0.09370   0.000001000.00000
 238         D19        0.00201   0.04823  -0.000001000.00000
 239         D20       -0.00635   0.09277   0.000001000.00000
 240         D21        0.01826  -0.00433  -0.000001000.00000
 241         D22        0.00990   0.04021  -0.000001000.00000
 242         D23        0.03053   0.05909   0.000001000.00000
 243         D24        0.02217   0.10363  -0.000001000.00000
 244         D25       -0.00022  -0.14177  -0.000001000.00000
 245         D26       -0.00807  -0.08018  -0.000001000.00000
 246         D27        0.00760  -0.02868   0.000001000.00000
 247         D28       -0.00025   0.03291  -0.000001000.00000
 248         D29        0.00421   0.14113   0.000001000.00000
 249         D30        0.00123   0.11275  -0.000001000.00000
 250         D31       -0.00204   0.03699  -0.000001000.00000
 251         D32       -0.00502   0.00861   0.000001000.00000
 252         D33        0.00396   0.01080  -0.000001000.00000
 253         D34        0.00163   0.03234  -0.000001000.00000
 254         D35        0.00270  -0.00489   0.000001000.00000
 255         D36        0.00036   0.01665  -0.000001000.00000
 256         D37       -0.04977  -0.01105   0.000001000.00000
 257         D38       -0.04860   0.00467   0.000001000.00000
 258         D39       -0.00099  -0.03043  -0.000001000.00000
 259         D40        0.00209  -0.00114  -0.000001000.00000
 260         D41       -0.00223  -0.04594   0.000001000.00000
 261         D42        0.00085  -0.01666  -0.000001000.00000
 262         D43        0.00296  -0.01035   0.000001000.00000
 263         D44        0.00555  -0.05450   0.000001000.00000
 264         D45        0.00063   0.01105   0.000001000.00000
 265         D46        0.00322  -0.03310  -0.000001000.00000
 266         D47       -0.00723   0.01612   0.000001000.00000
 267         D48       -0.00956   0.05930   0.000001000.00000
 268         D49        0.00082  -0.04708   0.000001000.00000
 269         D50       -0.00151  -0.00390  -0.000001000.00000
 270         D51        0.23396  -0.00446  -0.000001000.00000
 271         D52       -0.01437   0.04480  -0.000001000.00000
 272         D53        0.01765   0.08095   0.000001000.00000
 273         D54        0.22350   0.15302   0.000001000.00000
 274         D55        0.03526  -0.02499   0.000001000.00000
 275         D56        0.03469   0.01238   0.000001000.00000
 276         D57        0.00360  -0.01638   0.000001000.00000
 277         D58        0.00302   0.02099  -0.000001000.00000
 278         D59       -0.04034   0.00831   0.000001000.00000
 279         D60       -0.03037   0.00725  -0.000001000.00000
 280         D61       -0.00976   0.00246   0.000001000.00000
 281         D62        0.00021   0.00140   0.000001000.00000
 282         D63       -0.00209   0.01770  -0.000001000.00000
 283         D64       -0.00348   0.02154  -0.000001000.00000
 284         D65       -0.00142  -0.02006   0.000001000.00000
 285         D66       -0.00281  -0.01622   0.000001000.00000
 286         D67        0.06776  -0.05412  -0.000001000.00000
 287         D68        0.06711  -0.01649   0.000001000.00000
 288         D69       -0.00059  -0.01160   0.000001000.00000
 289         D70        0.00123  -0.00753  -0.000001000.00000
 290         D71       -0.00199  -0.00773  -0.000001000.00000
 291         D72       -0.00017  -0.00366  -0.000001000.00000
 292         D73        0.09001  -0.00507  -0.000001000.00000
 293         D74        0.07993  -0.00391   0.000001000.00000
 294         D75       -0.00429   0.00894  -0.000001000.00000
 295         D76       -0.00323   0.00175   0.000001000.00000
 296         D77        0.00557   0.00797   0.000001000.00000
 297         D78        0.00663   0.00078  -0.000001000.00000
 298         D79       -0.11503   0.04933   0.000001000.00000
 299         D80       -0.01436   0.06273  -0.000001000.00000
 300         D81        0.00083   0.02571   0.000001000.00000
 301         D82       -0.00791   0.02113  -0.000001000.00000
 302         D83        0.00728  -0.01589  -0.000001000.00000
 303         D84        0.00788  -0.05136  -0.000001000.00000
 304         D85        0.01177  -0.03810   0.000001000.00000
 305         D86       -0.00155  -0.00802  -0.000001000.00000
 306         D87        0.00234   0.00523  -0.000001000.00000
 307         D88       -0.00821   0.03964   0.000001000.00000
 308         D89       -0.00855   0.02517  -0.000001000.00000
 309         D90       -0.00206   0.01083   0.000001000.00000
 310         D91       -0.00239  -0.00365  -0.000001000.00000
 311         D92        0.07525   0.01922  -0.000001000.00000
 312         D93        0.06980   0.04725  -0.000001000.00000
 313         D94        0.00980  -0.02280   0.000001000.00000
 314         D95       -0.00590   0.01542   0.000001000.00000
 315         D96        0.01499  -0.05070  -0.000001000.00000
 316         D97       -0.00071  -0.01248  -0.000001000.00000
 317         D98       -0.00223   0.01314  -0.000001000.00000
 318         D99       -0.00695   0.00158   0.000001000.00000
 319         D100      -0.00190   0.02756  -0.000001000.00000
 320         D101      -0.00662   0.01600  -0.000001000.00000
 321         D102       0.02781   0.12942  -0.000001000.00000
 322         D103       0.02487   0.10137   0.000001000.00000
 323         D104      -0.01759  -0.02134  -0.000001000.00000
 324         D105      -0.00664  -0.00580   0.000001000.00000
 325         D106      -0.02820  -0.01246  -0.000001000.00000
 326         D107      -0.01725   0.00308   0.000001000.00000
 327         D108       0.04549  -0.00444   0.000001000.00000
 328         D109       0.05644   0.01110  -0.000001000.00000
 329         D110       0.00696   0.02856   0.000001000.00000
 330         D111       0.02339   0.03964  -0.000001000.00000
 331         D112       0.01484   0.01963   0.000001000.00000
 332         D113       0.03126   0.03070  -0.000001000.00000
 333         D114      -0.05639   0.01171   0.000001000.00000
 334         D115      -0.03996   0.02278  -0.000001000.00000
 335         D116       0.29968  -0.03957   0.000001000.00000
 336         D117       0.30609  -0.04699   0.000001000.00000
 337         D118       0.01421   0.00586   0.000001000.00000
 338         D119       0.00413   0.00742  -0.000001000.00000
 339         D120      -0.04391  -0.00665  -0.000001000.00000
 340         D121      -0.05399  -0.00509   0.000001000.00000
 341         D122       0.02630   0.00666  -0.000001000.00000
 342         D123       0.01621   0.00822   0.000001000.00000
 343         D124      -0.00395   0.01661   0.000001000.00000
 344         D125      -0.01565   0.01278  -0.000001000.00000
 345         D126       0.05371   0.02901   0.000001000.00000
 346         D127       0.04201   0.02518   0.000001000.00000
 347         D128      -0.01634   0.01555   0.000001000.00000
 348         D129      -0.02804   0.01172   0.000001000.00000
 349         D130      -0.00155   0.06083   0.000001000.00000
 350         D131      -0.00146   0.08025  -0.000001000.00000
 351         D132       0.00135   0.01542   0.000001000.00000
 352         D133       0.00144   0.03483   0.000001000.00000
 353         D134       0.00021   0.00330   0.000001000.00000
 354         D135       0.00054   0.00655   0.000001000.00000
 355         D136       0.00023  -0.01561   0.000001000.00000
 356         D137       0.00057  -0.01235   0.000001000.00000
 357         D138       0.00826   0.00647   0.000001000.00000
 358         D139      -0.00281  -0.00926   0.000001000.00000
 359         D140       0.00790   0.02533   0.000001000.00000
 360         D141      -0.00317   0.00960   0.000001000.00000
 361         D142       0.00178   0.00844   0.000001000.00000
 362         D143      -0.00011   0.00856  -0.000001000.00000
 363         D144       0.00145   0.00525   0.000001000.00000
 364         D145      -0.00044   0.00536   0.000001000.00000
 365         D146      -0.00154   0.00447  -0.000001000.00000
 366         D147      -0.00376  -0.00063   0.000001000.00000
 367         D148       0.00037   0.00439   0.000001000.00000
 368         D149      -0.00185  -0.00071   0.000001000.00000
 369         D150      -0.01087  -0.00752  -0.000001000.00000
 370         D151      -0.00049  -0.00901   0.000001000.00000
 371         D152      -0.00869  -0.00252  -0.000001000.00000
 372         D153       0.00169  -0.00401  -0.000001000.00000
 373         D154       0.00273  -0.01357  -0.000001000.00000
 374         D155       0.01329   0.00147   0.000001000.00000
 375         D156      -0.00731  -0.01238  -0.000001000.00000
 376         D157       0.00324   0.00266   0.000001000.00000
 377         D158      -0.00151  -0.03281  -0.000001000.00000
 378         D159       0.00920  -0.02921   0.000001000.00000
 379         D160      -0.01750  -0.04358  -0.000001000.00000
 380         D161      -0.00679  -0.03998   0.000001000.00000
 381         D162      -0.01290   0.03355  -0.000001000.00000
 382         D163      -0.00743   0.05386  -0.000001000.00000
 383         D164       0.00375   0.04477  -0.000001000.00000
 384         D165       0.00922   0.06508  -0.000001000.00000
 385         D166       0.01642   0.01080   0.000001000.00000
 386         D167       0.01142   0.01606  -0.000001000.00000
 387         D168       0.00471   0.00689   0.000001000.00000
 388         D169      -0.00029   0.01215  -0.000001000.00000
 389         D170       0.00202   0.02144  -0.000001000.00000
 390         D171      -0.00250   0.00673   0.000001000.00000
 391         D172       0.00712   0.01609  -0.000001000.00000
 392         D173       0.00259   0.00137  -0.000001000.00000
 393         D174      -0.00532  -0.01629   0.000001000.00000
 394         D175      -0.00444  -0.02662   0.000001000.00000
 395         D176      -0.00085  -0.00172   0.000001000.00000
 396         D177       0.00003  -0.01205   0.000001000.00000
 397         D178       0.00151  -0.01707   0.000001000.00000
 398         D179      -0.00349  -0.03694   0.000001000.00000
 399         D180       0.00062  -0.00656  -0.000001000.00000
 400         D181      -0.00438  -0.02644  -0.000001000.00000
 401         D182      -0.02135  -0.03916  -0.000001000.00000
 402         D183      -0.01614  -0.02760   0.000001000.00000
 403         D184      -0.01642  -0.01847   0.000001000.00000
 404         D185      -0.01121  -0.00691   0.000001000.00000
 405         D186       0.00956  -0.00327  -0.000001000.00000
 406         D187       0.00557  -0.01684   0.000001000.00000
 407         D188       0.00488  -0.01436   0.000001000.00000
 408         D189       0.00090  -0.02793   0.000001000.00000
 409         D190       0.00446  -0.00399   0.000001000.00000
 410         D191       0.00339   0.00326  -0.000001000.00000
 411         D192       0.00264  -0.00807  -0.000001000.00000
 412         D193       0.00157  -0.00083  -0.000001000.00000
 RFO step:  Lambda0=5.080252885D-08 Lambda=-5.30145033D-03.
 Linear search not attempted -- option 19 set.
 Maximum step size (   0.300) exceeded in Quadratic search.
    -- Step size scaled by   0.500
 Iteration  1 RMS(Cart)=  0.05539859 RMS(Int)=  0.00131947
 Iteration  2 RMS(Cart)=  0.00226042 RMS(Int)=  0.00023504
 Iteration  3 RMS(Cart)=  0.00000380 RMS(Int)=  0.00023502
 Iteration  4 RMS(Cart)=  0.00000001 RMS(Int)=  0.00023502
 Variable       Old X    -DE/DX   Delta X   Delta X   Delta X     New X
                                 (Linear)    (Quad)   (Total)
    R1        3.48785  -0.00007   0.00000   0.00018   0.00018   3.48804
    R2        3.49904   0.00031   0.00000   0.00112   0.00112   3.50016
    R3        3.39229  -0.00014   0.00000  -0.00124  -0.00124   3.39105
    R4        3.97427  -0.00006   0.00000  -0.00180  -0.00197   3.97230
    R5        8.05764  -0.00046   0.00000   0.13086   0.13094   8.18859
    R6        3.98140   0.00154   0.00000   0.00600   0.00601   3.98740
    R7        8.93691  -0.00063   0.00000  -0.12223  -0.12229   8.81462
    R8        2.15351   0.00010   0.00000   0.00003   0.00003   2.15355
    R9        2.15088  -0.00020   0.00000  -0.00029  -0.00029   2.15059
   R10        2.16233   0.00034   0.00000   0.00035   0.00035   2.16268
   R11        2.52763   0.00004   0.00000   0.00008   0.00008   2.52771
   R12        2.54128   0.00067   0.00000   0.00036   0.00016   2.54144
   R13        2.62860   0.00006   0.00000   0.00024   0.00034   2.62894
   R14        2.06149  -0.00007   0.00000  -0.00085  -0.00102   2.06047
   R15        2.62429  -0.00019   0.00000  -0.00128  -0.00128   2.62301
   R16        2.06330   0.00012   0.00000   0.00018   0.00018   2.06348
   R17        2.64174  -0.00007   0.00000  -0.00056  -0.00059   2.64115
   R18        2.64398   0.00017   0.00000  -0.00032  -0.00037   2.64362
   R19        2.05918   0.00013   0.00000   0.00092   0.00092   2.06010
   R20       10.39656  -0.00092   0.00000  -0.21134  -0.21115  10.18541
   R21        2.18844  -0.00012   0.00000  -0.00009   0.00011   2.18855
   R22       17.54108  -0.00046   0.00000  -0.03722  -0.03737  17.50371
   R23        2.71624   0.00038   0.00000   0.00039   0.00059   2.71682
   R24        2.64688   0.00109   0.00000   0.00012   0.00006   2.64694
   R25        2.65213   0.00018   0.00000  -0.00032  -0.00015   2.65198
   R26        2.63082  -0.00050   0.00000  -0.00057  -0.00054   2.63027
   R27        2.06330   0.00010   0.00000  -0.00035  -0.00055   2.06275
   R28        2.06230   0.00010   0.00000   0.00019   0.00019   2.06248
   R29        2.63448   0.00059   0.00000   0.00116   0.00108   2.63557
   R30        2.06229   0.00042   0.00000   0.00047   0.00044   2.06273
   R31        2.62781   0.00026   0.00000   0.00038   0.00036   2.62817
   R32       12.91422  -0.00141   0.00000   0.03521   0.03511  12.94934
   R33        2.53748   0.00015   0.00000  -0.00038  -0.00033   2.53715
   R34        2.52859   0.00080   0.00000   0.00214   0.00210   2.53069
   R35        2.62882  -0.00034   0.00000  -0.00139  -0.00133   2.62748
   R36        2.06055   0.00003   0.00000  -0.00038  -0.00026   2.06030
   R37        2.62465   0.00012   0.00000  -0.00065  -0.00062   2.62403
   R38        2.64415  -0.00024   0.00000  -0.00004   0.00004   2.64419
   R39        2.06390   0.00003   0.00000   0.00007   0.00007   2.06396
   R40        2.07296   0.00050   0.00000   0.00095   0.00105   2.07401
   R41        4.91101   0.00063   0.00000   0.01343   0.01362   4.92463
   R42        2.06272  -0.00024   0.00000  -0.00039  -0.00039   2.06233
   R43        2.63482   0.00051   0.00000   0.00096   0.00078   2.63560
   R44        2.63537  -0.00058   0.00000  -0.00144  -0.00135   2.63402
   R45        7.30320   0.00053   0.00000   0.00493   0.00500   7.30820
   R46        2.04681   0.00015   0.00000   0.00010   0.00011   2.04691
   R47        2.64984  -0.00011   0.00000   0.00010   0.00016   2.65000
   R48        2.64769   0.00021   0.00000   0.00081   0.00079   2.64848
   R49        2.06412   0.00043   0.00000   0.00167   0.00173   2.06586
   R50        7.27974   0.00026   0.00000   0.00425   0.00424   7.28398
   R51        2.81084   0.00037   0.00000   0.00001   0.00011   2.81095
   R52        2.59308  -0.00002   0.00000  -0.00013  -0.00012   2.59296
   R53        2.73396   0.00104   0.00000   0.00126   0.00117   2.73513
   R54        2.69419   0.00010   0.00000  -0.00007  -0.00004   2.69415
   R55        2.06441  -0.00001   0.00000  -0.00000  -0.00000   2.06441
   R56        2.58207  -0.00011   0.00000  -0.00033  -0.00031   2.58175
   R57        2.06288  -0.00002   0.00000  -0.00001  -0.00001   2.06287
   R58        2.70613  -0.00008   0.00000  -0.00012  -0.00014   2.70599
   R59        2.06414   0.00005   0.00000   0.00012   0.00012   2.06426
   R60        2.71044   0.00015   0.00000   0.00095   0.00098   2.71142
   R61        2.71275  -0.00019   0.00000   0.00047   0.00048   2.71324
   R62        2.73881  -0.00094   0.00000  -0.00211  -0.00200   2.73681
   R63        2.70633   0.00023   0.00000   0.00045   0.00044   2.70676
   R64        2.58127  -0.00004   0.00000  -0.00005  -0.00007   2.58120
   R65        2.06428   0.00001   0.00000   0.00001   0.00001   2.06429
   R66        2.69482   0.00007   0.00000   0.00006   0.00005   2.69487
   R67        2.06271   0.00003   0.00000   0.00010   0.00010   2.06282
   R68        2.59205   0.00021   0.00000   0.00024   0.00025   2.59229
   R69        2.06449   0.00002   0.00000   0.00011   0.00011   2.06460
   R70        2.81328  -0.00005   0.00000  -0.00008  -0.00006   2.81323
   R71        2.64252   0.00078   0.00000   0.00186   0.00184   2.64436
   R72        2.05868   0.00029   0.00000   0.00088   0.00088   2.05955
   R73        2.63836   0.00051   0.00000   0.00096   0.00086   2.63922
   R74        2.06312  -0.00003   0.00000   0.00000   0.00000   2.06312
   R75        2.06251  -0.00003   0.00000  -0.00004  -0.00004   2.06247
    A1        1.60592  -0.00113   0.00000  -0.00449  -0.00428   1.60164
    A2        1.57477   0.00016   0.00000  -0.00130  -0.00136   1.57341
    A3        3.16114  -0.00067   0.00000  -0.00042  -0.00053   3.16061
    A4        3.27995  -0.00033   0.00000  -0.00146  -0.00160   3.27836
    A5        1.88820   0.00032   0.00000   0.01053   0.01060   1.89880
    A6        1.55270   0.00089   0.00000   0.00280   0.00275   1.55545
    A7        1.74522  -0.00073   0.00000  -0.02244  -0.02231   1.72291
    A8        1.56908   0.00013   0.00000   0.00348   0.00339   1.57247
    A9        1.55523   0.00046   0.00000   0.00407   0.00375   1.55897
   A10        1.98895   0.00008   0.00000  -0.00247  -0.00275   1.98620
   A11        3.15862  -0.00024   0.00000  -0.00169  -0.00153   3.15709
   A12        3.04251  -0.00035   0.00000  -0.00657  -0.00649   3.03602
   A13        0.99387   0.00047   0.00000   0.00782   0.00906   1.00293
   A14        1.70520  -0.00050   0.00000  -0.00021  -0.00029   1.70491
   A15        3.46297   0.00048   0.00000   0.00923   0.00924   3.47221
   A16        3.59476  -0.00015   0.00000   0.00115   0.00084   3.59560
   A17        1.67151   0.00021   0.00000   0.00313   0.00314   1.67465
   A18        3.31999  -0.00057   0.00000  -0.02374  -0.02367   3.29632
   A19        2.56004   0.00045   0.00000   0.01218   0.01329   2.57333
   A20        1.12100   0.00027   0.00000  -0.00917  -0.00907   1.11194
   A21        1.55595  -0.00024   0.00000  -0.00315  -0.00294   1.55301
   A22        1.29212   0.00060   0.00000   0.02250   0.02233   1.31445
   A23        2.04724  -0.00077   0.00000  -0.01401  -0.01524   2.03200
   A24        3.14484  -0.00007   0.00000  -0.00181  -0.00180   3.14304
   A25        3.15365  -0.00003   0.00000  -0.00103  -0.00103   3.15262
   A26        3.12003  -0.00010   0.00000  -0.00167  -0.00165   3.11838
   A27        3.11274  -0.00023   0.00000  -0.00439  -0.00440   3.10834
   A28        3.17722  -0.00129   0.00000  -0.01674  -0.01674   3.16048
   A29        3.17147   0.00176   0.00000   0.03083   0.03083   3.20230
   A30        3.11482   0.00067   0.00000   0.00986   0.00986   3.12468
   A31        3.15425   0.00040   0.00000   0.00081   0.00081   3.15506
   A32        2.16164  -0.00006   0.00000  -0.00172  -0.00184   2.15980
   A33        2.05509   0.00002   0.00000   0.00036   0.00029   2.05538
   A34        2.06535   0.00003   0.00000   0.00161   0.00179   2.06714
   A35        2.12171  -0.00078   0.00000  -0.00299  -0.00334   2.11837
   A36        2.08333   0.00011   0.00000   0.00032   0.00037   2.08369
   A37        2.07790   0.00067   0.00000   0.00244   0.00268   2.08058
   A38        2.10367  -0.00012   0.00000  -0.00065  -0.00069   2.10297
   A39        2.08351   0.00014   0.00000   0.00048   0.00053   2.08404
   A40        2.09561  -0.00002   0.00000  -0.00010  -0.00014   2.09547
   A41        2.16248  -0.00002   0.00000  -0.00109  -0.00109   2.16139
   A42        2.03619   0.00006   0.00000   0.00169   0.00168   2.03788
   A43        2.08451  -0.00004   0.00000  -0.00062  -0.00063   2.08388
   A44        0.85728  -0.00058   0.00000   0.00764   0.00749   0.86477
   A45        2.15783  -0.00051   0.00000  -0.02238  -0.02225   2.13558
   A46        2.22001  -0.00070   0.00000   0.01273   0.01279   2.23280
   A47        0.75291  -0.00115   0.00000  -0.00263  -0.00230   0.75061
   A48        3.15479  -0.00134   0.00000  -0.02710  -0.02731   3.12748
   A49        3.14146  -0.00205   0.00000  -0.03942  -0.03926   3.10220
   A50        3.12491   0.00058   0.00000   0.01277   0.01242   3.13734
   A51        3.13499  -0.00165   0.00000  -0.03152  -0.03124   3.10375
   A52        2.08192   0.00016   0.00000  -0.00365  -0.00345   2.07846
   A53        2.10025  -0.00092   0.00000   0.00158   0.00172   2.10197
   A54        2.10066   0.00076   0.00000   0.00201   0.00167   2.10233
   A55        2.08770  -0.00020   0.00000   0.00013   0.00028   2.08798
   A56        2.09775  -0.00014   0.00000  -0.00547  -0.00557   2.09217
   A57        2.09772   0.00034   0.00000   0.00544   0.00527   2.10299
   A58        2.08721   0.00012   0.00000   0.00045   0.00042   2.08763
   A59        2.09631  -0.00036   0.00000  -0.00170  -0.00166   2.09465
   A60        2.09965   0.00024   0.00000   0.00124   0.00122   2.10087
   A61        2.09944   0.00058   0.00000  -0.00022  -0.00044   2.09900
   A62        2.08464  -0.00077   0.00000  -0.00184  -0.00163   2.08301
   A63        2.09908   0.00019   0.00000   0.00201   0.00199   2.10107
   A64        0.84393  -0.00128   0.00000  -0.00914  -0.00933   0.83460
   A65        1.09973  -0.00034   0.00000   0.01312   0.01259   1.11232
   A66        2.07353   0.00014   0.00000  -0.00468  -0.00467   2.06886
   A67        2.14421   0.00022   0.00000   0.00349   0.00338   2.14759
   A68        2.06100  -0.00036   0.00000  -0.00015  -0.00015   2.06086
   A69        2.11861  -0.00082   0.00000  -0.00203  -0.00197   2.11664
   A70        2.07951  -0.00001   0.00000  -0.00103  -0.00110   2.07841
   A71        2.08435   0.00084   0.00000   0.00326   0.00326   2.08760
   A72        2.08301   0.00026   0.00000   0.00125   0.00125   2.08427
   A73        2.10386  -0.00022   0.00000  -0.00110  -0.00110   2.10276
   A74        2.09617  -0.00004   0.00000  -0.00021  -0.00021   2.09596
   A75        1.24015  -0.00120   0.00000   0.00042   0.00055   1.24071
   A76        2.12649  -0.00021   0.00000  -0.00133  -0.00152   2.12496
   A77        2.05041   0.00083   0.00000   0.00018  -0.00016   2.05025
   A78        2.10628  -0.00062   0.00000   0.00118   0.00166   2.10795
   A79        2.82292   0.00247   0.00000   0.03382   0.03240   2.85533
   A80        2.13359   0.00031   0.00000   0.00181   0.00182   2.13541
   A81        2.04522  -0.00043   0.00000  -0.00206  -0.00210   2.04312
   A82        2.10436   0.00011   0.00000   0.00020   0.00017   2.10453
   A83        2.15115  -0.00005   0.00000  -0.00149  -0.00150   2.14965
   A84        1.07749   0.00008   0.00000  -0.00045  -0.00042   1.07707
   A85        2.06245   0.00030   0.00000   0.00198   0.00194   2.06439
   A86        1.07777  -0.00010   0.00000  -0.00025  -0.00026   1.07751
   A87        2.06935  -0.00025   0.00000  -0.00019  -0.00024   2.06911
   A88        2.13168  -0.00008   0.00000  -0.00162  -0.00166   2.13002
   A89        2.07571   0.00004   0.00000  -0.00038  -0.00030   2.07541
   A90        1.06585   0.00014   0.00000  -0.00015  -0.00019   1.06566
   A91        2.07577   0.00005   0.00000   0.00197   0.00192   2.07770
   A92        1.06856  -0.00022   0.00000  -0.00120  -0.00120   1.06736
   A93        2.03875  -0.00008   0.00000  -0.00022  -0.00035   2.03840
   A94        2.14360  -0.00039   0.00000  -0.00137  -0.00120   2.14240
   A95        2.10060   0.00047   0.00000   0.00137   0.00127   2.10188
   A96        2.11855   0.00006   0.00000   0.00147   0.00143   2.11998
   A97        2.08855   0.00011   0.00000  -0.00125  -0.00125   2.08729
   A98        2.07590  -0.00016   0.00000   0.00008   0.00000   2.07590
   A99        2.11735  -0.00003   0.00000  -0.00018  -0.00016   2.11718
   A100       2.08922   0.00005   0.00000   0.00023   0.00022   2.08944
   A101       2.07597  -0.00002   0.00000   0.00011   0.00010   2.07607
   A102       2.10891   0.00019   0.00000   0.00040   0.00042   2.10933
   A103       2.07590  -0.00004   0.00000   0.00012   0.00011   2.07600
   A104       2.09807  -0.00015   0.00000  -0.00048  -0.00049   2.09759
   A105       2.10204   0.00010   0.00000   0.00027   0.00025   2.10229
   A106       2.10655  -0.00007   0.00000  -0.00043  -0.00042   2.10613
   A107       2.07459  -0.00003   0.00000   0.00015   0.00017   2.07476
   A108       2.13614  -0.00012   0.00000  -0.00094  -0.00087   2.13527
   A109       2.07557   0.00016   0.00000   0.00114   0.00112   2.07669
   A110       2.07136  -0.00004   0.00000  -0.00022  -0.00027   2.07108
   A111       2.12993   0.00034   0.00000   0.00066   0.00051   2.13044
   A112       2.06393  -0.00026   0.00000  -0.00029  -0.00025   2.06368
   A113       2.08932  -0.00007   0.00000  -0.00037  -0.00025   2.08906
   A114       2.06323   0.00031   0.00000   0.00124   0.00118   2.06441
   A115       2.13317  -0.00050   0.00000  -0.00231  -0.00220   2.13096
   A116       2.08679   0.00018   0.00000   0.00108   0.00102   2.08781
   A117       2.07577  -0.00011   0.00000   0.00001   0.00003   2.07580
   A118       2.13617   0.00010   0.00000   0.00072   0.00068   2.13686
   A119       2.07114   0.00001   0.00000  -0.00076  -0.00074   2.07040
   A120       2.10371  -0.00009   0.00000  -0.00030  -0.00030   2.10341
   A121       2.07364   0.00012   0.00000   0.00073   0.00073   2.07437
   A122       2.10584  -0.00003   0.00000  -0.00042  -0.00043   2.10541
   A123       2.10931  -0.00020   0.00000  -0.00005  -0.00005   2.10925
   A124       2.09780   0.00009   0.00000   0.00015   0.00016   2.09796
   A125       2.07584   0.00010   0.00000  -0.00013  -0.00013   2.07571
   A126       2.11619   0.00009   0.00000   0.00034   0.00037   2.11656
   A127       2.07687  -0.00007   0.00000  -0.00050  -0.00052   2.07635
   A128       2.08952  -0.00003   0.00000   0.00033   0.00031   2.08984
   A129       2.07810  -0.00002   0.00000  -0.00081  -0.00085   2.07726
   A130       2.09130  -0.00008   0.00000   0.00152   0.00159   2.09289
   A131       2.11359   0.00010   0.00000  -0.00043  -0.00057   2.11302
   A132       2.14097  -0.00055   0.00000  -0.00630  -0.00622   2.13475
   A133       2.04006  -0.00003   0.00000   0.00041   0.00042   2.04048
   A134       2.10192   0.00058   0.00000   0.00580   0.00570   2.10761
   A135       2.16392  -0.00015   0.00000  -0.00202  -0.00202   2.16190
   A136       2.03564   0.00011   0.00000   0.00061   0.00061   2.03625
   A137       2.08356   0.00004   0.00000   0.00135   0.00134   2.08491
   A138       2.09800   0.00047   0.00000   0.00129   0.00121   2.09921
   A139       2.09208  -0.00020   0.00000  -0.00039  -0.00036   2.09173
   A140       2.09310  -0.00027   0.00000  -0.00090  -0.00086   2.09224
   A141       2.09871   0.00010   0.00000   0.00002  -0.00001   2.09871
   A142       2.08780  -0.00009   0.00000  -0.00013  -0.00012   2.08768
   A143       2.09665  -0.00001   0.00000   0.00008   0.00009   2.09674
   A144       0.20053  -0.00003   0.00000   0.01308   0.01301   0.21354
    D1        2.11075   0.00046   0.00000  -0.01237  -0.01224   2.09851
    D2       -1.08228   0.00020   0.00000  -0.00655  -0.00626  -1.08854
    D3        0.54378   0.00026   0.00000  -0.01643  -0.01616   0.52762
    D4       -2.64924  -0.00000   0.00000  -0.01062  -0.01019  -2.65943
    D5       -2.12534   0.00023   0.00000  -0.01499  -0.01505  -2.14039
    D6        0.96482  -0.00003   0.00000  -0.00918  -0.00908   0.95575
    D7       -1.12664   0.00007   0.00000  -0.01916  -0.01893  -1.14557
    D8        1.96352  -0.00019   0.00000  -0.01335  -0.01296   1.95056
    D9        3.08359   0.00091   0.00000  -0.00152  -0.00017   3.08342
   D10       -0.10943   0.00065   0.00000   0.00429   0.00580  -0.10363
   D11       -1.60702  -0.00023   0.00000  -0.03116  -0.03104  -1.63806
   D12        2.38055   0.00048   0.00000   0.00143   0.00105   2.38160
   D13        2.54273   0.00014   0.00000  -0.02809  -0.02747   2.51526
   D14        0.24712   0.00086   0.00000   0.00450   0.00462   0.25174
   D15        1.65133   0.00022   0.00000  -0.03143  -0.03142   1.61990
   D16       -0.64429   0.00093   0.00000   0.00116   0.00067  -0.64362
   D17        1.06838  -0.00010   0.00000   0.01102   0.01104   1.07941
   D18       -2.17641  -0.00015   0.00000  -0.00447  -0.00449  -2.18090
   D19        2.64134   0.00015   0.00000   0.00994   0.00990   2.65124
   D20       -0.60345   0.00009   0.00000  -0.00556  -0.00563  -0.60908
   D21       -1.93746  -0.00038   0.00000   0.00940   0.00930  -1.92816
   D22        1.10094  -0.00043   0.00000  -0.00609  -0.00623   1.09471
   D23       -0.68949   0.00032   0.00000   0.03598   0.03580  -0.65370
   D24        2.34890   0.00026   0.00000   0.02049   0.02027   2.36917
   D25        3.00217  -0.00051   0.00000   0.00937   0.00921   3.01138
   D26       -0.13684  -0.00002   0.00000   0.01605   0.01599  -0.12086
   D27       -0.08771  -0.00025   0.00000   0.00355   0.00324  -0.08447
   D28        3.05646   0.00024   0.00000   0.01024   0.01002   3.06648
   D29       -3.10487   0.00018   0.00000  -0.01210  -0.01187  -3.11674
   D30        0.03958   0.00003   0.00000  -0.02315  -0.02214   0.01744
   D31       -0.01180  -0.00006   0.00000  -0.00671  -0.00633  -0.01813
   D32        3.13265  -0.00021   0.00000  -0.01777  -0.01660   3.11605
   D33       -0.04817   0.00009   0.00000   0.00618   0.00610  -0.04206
   D34        3.12378   0.00045   0.00000   0.01639   0.01601   3.13979
   D35        3.06917  -0.00033   0.00000  -0.00517  -0.00509   3.06409
   D36       -0.04207   0.00003   0.00000   0.00504   0.00483  -0.03724
   D37        1.47900  -0.00056   0.00000  -0.01014  -0.00978   1.46922
   D38       -1.63841  -0.00013   0.00000   0.00121   0.00142  -1.63699
   D39        0.07539   0.00017   0.00000   0.00247   0.00235   0.07775
   D40       -3.06914   0.00033   0.00000   0.01388   0.01295  -3.05619
   D41       -3.08984  -0.00026   0.00000  -0.00866  -0.00867  -3.09851
   D42        0.04881  -0.00010   0.00000   0.00274   0.00192   0.05073
   D43       -0.04772  -0.00032   0.00000  -0.00797  -0.00770  -0.05541
   D44        3.07086  -0.00055   0.00000  -0.01900  -0.01866   3.05221
   D45        3.12409   0.00003   0.00000   0.00221   0.00218   3.12627
   D46       -0.04052  -0.00020   0.00000  -0.00882  -0.00878  -0.04930
   D47        0.11701   0.00044   0.00000   0.00372   0.00370   0.12071
   D48       -3.00217   0.00068   0.00000   0.01450   0.01443  -2.98774
   D49       -3.02723  -0.00006   0.00000  -0.00313  -0.00324  -3.03047
   D50        0.13678   0.00017   0.00000   0.00765   0.00748   0.14426
   D51       -2.20762   0.00149   0.00000   0.01974   0.01994  -2.18769
   D52        0.59183  -0.00174   0.00000  -0.06508  -0.06582   0.52601
   D53       -2.52377  -0.00067   0.00000  -0.04192  -0.04271  -2.56648
   D54        2.45576  -0.00001   0.00000  -0.03132  -0.03102   2.42473
   D55       -3.08879   0.00017   0.00000   0.00934   0.00937  -3.07942
   D56        0.05981  -0.00053   0.00000  -0.00698  -0.00701   0.05280
   D57        0.02396   0.00014   0.00000   0.00695   0.00687   0.03083
   D58       -3.11063  -0.00056   0.00000  -0.00938  -0.00951  -3.12014
   D59       -0.04260   0.00024   0.00000   0.00251   0.00234  -0.04025
   D60        3.09104   0.00009   0.00000  -0.00478  -0.00475   3.08630
   D61        3.12815   0.00025   0.00000   0.00502   0.00496   3.13311
   D62       -0.02140   0.00010   0.00000  -0.00227  -0.00213  -0.02353
   D63        3.12866  -0.00032   0.00000  -0.00864  -0.00867   3.11999
   D64       -0.00487  -0.00028   0.00000  -0.00717  -0.00719  -0.01205
   D65       -0.01994   0.00038   0.00000   0.00764   0.00777  -0.01217
   D66        3.12972   0.00041   0.00000   0.00911   0.00925   3.13897
   D67       -0.74641   0.00012   0.00000  -0.01920  -0.01904  -0.76545
   D68        2.40222  -0.00058   0.00000  -0.03560  -0.03554   2.36668
   D69       -0.01668   0.00020   0.00000   0.00282   0.00287  -0.01381
   D70        3.13037   0.00013   0.00000   0.00296   0.00298   3.13336
   D71        3.13304   0.00024   0.00000   0.00431   0.00437   3.13741
   D72       -0.00310   0.00016   0.00000   0.00445   0.00448   0.00139
   D73       -0.14181   0.00082   0.00000   0.02058   0.02109  -0.12073
   D74        3.00780   0.00097   0.00000   0.02795   0.02827   3.03607
   D75       -0.00023  -0.00018   0.00000  -0.00214  -0.00225  -0.00247
   D76       -3.13323  -0.00006   0.00000   0.00122   0.00114  -3.13209
   D77        3.13342  -0.00033   0.00000  -0.00944  -0.00936   3.12406
   D78        0.00041  -0.00021   0.00000  -0.00607  -0.00598  -0.00556
   D79        1.00798  -0.00090   0.00000  -0.04356  -0.04332   0.96467
   D80        3.03762  -0.00014   0.00000  -0.02325  -0.02329   3.01433
   D81       -0.09811   0.00004   0.00000  -0.01235  -0.01241  -0.11052
   D82       -0.00572  -0.00012   0.00000  -0.00873  -0.00877  -0.01449
   D83       -3.14146   0.00006   0.00000   0.00216   0.00211  -3.13935
   D84       -2.94846   0.00002   0.00000   0.01937   0.01951  -2.92895
   D85        0.18067   0.00009   0.00000   0.01415   0.01422   0.19490
   D86        0.09064  -0.00001   0.00000   0.00372   0.00379   0.09443
   D87       -3.06341   0.00007   0.00000  -0.00149  -0.00149  -3.06490
   D88       -3.13253   0.00003   0.00000   0.00070   0.00078  -3.13175
   D89        0.02755   0.00000   0.00000   0.00390   0.00392   0.03147
   D90        0.05020  -0.00006   0.00000  -0.00523  -0.00516   0.04503
   D91       -3.07291  -0.00009   0.00000  -0.00203  -0.00202  -3.07493
   D92       -1.76638  -0.00000   0.00000   0.00999   0.00967  -1.75671
   D93        1.33397   0.00007   0.00000   0.01584   0.01554   1.34951
   D94       -0.06327   0.00014   0.00000   0.00956   0.00952  -0.05375
   D95        3.07227  -0.00004   0.00000  -0.00171  -0.00174   3.07053
   D96        3.11863   0.00009   0.00000   0.00387   0.00381   3.12244
   D97       -0.02901  -0.00010   0.00000  -0.00740  -0.00746  -0.03647
   D98       -3.09216  -0.00005   0.00000   0.00520   0.00514  -3.08702
   D99        0.02614  -0.00003   0.00000   0.00063   0.00060   0.02674
   D100       0.03103  -0.00003   0.00000   0.00200   0.00200   0.03303
   D101      -3.13386  -0.00001   0.00000  -0.00257  -0.00254  -3.13640
   D102       2.64929   0.00035   0.00000  -0.10776  -0.10860   2.54069
   D103      -0.48948   0.00020   0.00000  -0.11868  -0.11876  -0.60824
   D104      -3.03766   0.00041   0.00000   0.00838   0.00841  -3.02925
   D105       0.10756   0.00040   0.00000   0.00780   0.00780   0.11536
   D106      -3.13682   0.00008   0.00000  -0.00106  -0.00101  -3.13784
   D107       0.00840   0.00007   0.00000  -0.00165  -0.00163   0.00677
   D108       0.12786   0.00002   0.00000  -0.00695  -0.00694   0.12091
   D109      -3.01010   0.00001   0.00000  -0.00754  -0.00756  -3.01767
   D110      -0.10253  -0.00042   0.00000  -0.01322  -0.01322  -0.11576
   D111       3.03921  -0.00062   0.00000  -0.01262  -0.01264   3.02658
   D112      -0.00339  -0.00008   0.00000  -0.00379  -0.00380  -0.00719
   D113       3.13836  -0.00028   0.00000  -0.00318  -0.00322   3.13514
   D114       3.01504  -0.00003   0.00000   0.00220   0.00220   3.01725
   D115      -0.12639  -0.00023   0.00000   0.00281   0.00279  -0.12361
   D116      -1.73716   0.00004   0.00000  -0.01587  -0.01578  -1.75294
   D117       1.49855   0.00036   0.00000  -0.00681  -0.00671   1.49184
   D118       3.12945  -0.00007   0.00000  -0.00488  -0.00487   3.12458
   D119      -0.02874  -0.00008   0.00000  -0.00689  -0.00687  -0.03561
   D120      -0.00450   0.00009   0.00000  -0.00069  -0.00066  -0.00516
   D121       3.12050   0.00008   0.00000  -0.00271  -0.00267   3.11783
   D122      -3.07338   0.00007   0.00000  -0.00100  -0.00101  -3.07439
   D123       0.05162   0.00006   0.00000  -0.00301  -0.00301   0.04860
   D124       0.03376   0.00009   0.00000   0.00150   0.00148   0.03524
   D125      -3.12367   0.00010   0.00000  -0.00048  -0.00049  -3.12416
   D126      -3.11548  -0.00008   0.00000  -0.00270  -0.00274  -3.11822
   D127       0.01028  -0.00006   0.00000  -0.00468  -0.00472   0.00557
   D128      -0.04648  -0.00007   0.00000  -0.00242  -0.00242  -0.04889
   D129       3.07928  -0.00006   0.00000  -0.00440  -0.00439   3.07489
   D130       0.83444   0.00070   0.00000   0.01649   0.01644   0.85087
   D131      -2.32799   0.00098   0.00000   0.03399   0.03385  -2.29414
   D132      -2.33096   0.00046   0.00000   0.00506   0.00507  -2.32589
   D133       0.78980   0.00074   0.00000   0.02256   0.02248   0.81228
   D134       3.10372   0.00004   0.00000   0.01448   0.01441   3.11813
   D135       0.00115   0.00008   0.00000   0.00953   0.00948   0.01063
   D136      -0.01719  -0.00024   0.00000  -0.00288  -0.00287  -0.02007
   D137      -3.11976  -0.00020   0.00000  -0.00783  -0.00781  -3.12757
   D138       0.07850   0.00001   0.00000  -0.01600  -0.01591   0.06259
   D139      -3.06678   0.00002   0.00000  -0.01540  -0.01528  -3.08206
   D140      -3.08342   0.00029   0.00000   0.00109   0.00107  -3.08234
   D141       0.05449   0.00030   0.00000   0.00168   0.00170   0.05619
   D142      -0.02313   0.00005   0.00000   0.00257   0.00255  -0.02058
   D143      -3.13833   0.00009   0.00000   0.00090   0.00090  -3.13743
   D144       3.07972   0.00001   0.00000   0.00748   0.00745   3.08718
   D145      -0.03548   0.00005   0.00000   0.00581   0.00580  -0.02968
   D146       0.02524   0.00010   0.00000  -0.00096  -0.00095   0.02429
   D147      -3.11294   0.00004   0.00000  -0.00089  -0.00088  -3.11382
   D148       3.14010   0.00006   0.00000   0.00074   0.00073   3.14084
   D149       0.00192   0.00001   0.00000   0.00081   0.00080   0.00273
   D150       3.13752  -0.00004   0.00000  -0.00218  -0.00215   3.13537
   D151       0.01249  -0.00003   0.00000  -0.00018  -0.00017   0.01232
   D152      -0.00742   0.00002   0.00000  -0.00224  -0.00222  -0.00964
   D153      -3.13245   0.00002   0.00000  -0.00024  -0.00024  -3.13269
   D154      -0.03972  -0.00015   0.00000   0.00237   0.00236  -0.03736
   D155       3.10542  -0.00015   0.00000   0.00179   0.00175   3.10717
   D156       3.08590  -0.00016   0.00000   0.00042   0.00043   3.08632
   D157      -0.05215  -0.00016   0.00000  -0.00015  -0.00018  -0.05233
   D158       0.02975   0.00017   0.00000   0.00835   0.00836   0.03811
   D159      -3.09660   0.00015   0.00000   0.01024   0.01025  -3.08635
   D160      -3.11199   0.00036   0.00000   0.00776   0.00779  -3.10420
   D161       0.04484   0.00034   0.00000   0.00965   0.00967   0.05452
   D162       3.09338  -0.00010   0.00000  -0.01234  -0.01234   3.08104
   D163      -0.06878  -0.00012   0.00000   0.00279   0.00276  -0.06603
   D164      -0.04805  -0.00030   0.00000  -0.01173  -0.01175  -0.05980
   D165       3.07297  -0.00032   0.00000   0.00340   0.00335   3.07632
   D166      -3.13601  -0.00015   0.00000   0.00026   0.00025  -3.13576
   D167       0.00818  -0.00011   0.00000  -0.00151  -0.00151   0.00667
   D168      -0.01022  -0.00014   0.00000  -0.00171  -0.00171  -0.01193
   D169       3.13398  -0.00009   0.00000  -0.00348  -0.00348   3.13051
   D170      -0.02176  -0.00010   0.00000  -0.00422  -0.00423  -0.02600
   D171      -3.13965   0.00001   0.00000  -0.00284  -0.00284   3.14069
   D172       3.11718  -0.00014   0.00000  -0.00243  -0.00244   3.11474
   D173      -0.00072  -0.00003   0.00000  -0.00104  -0.00104  -0.00176
   D174       0.01874   0.00015   0.00000   0.00212   0.00213   0.02087
   D175      -3.08544   0.00008   0.00000  -0.00340  -0.00337  -3.08881
   D176       3.13692   0.00004   0.00000   0.00076   0.00076   3.13768
   D177       0.03275  -0.00003   0.00000  -0.00476  -0.00475   0.02800
   D178       0.01657   0.00006   0.00000   0.00589   0.00589   0.02246
   D179      -3.10418   0.00008   0.00000  -0.00947  -0.00941  -3.11359
   D180       3.12047   0.00012   0.00000   0.01142   0.01142   3.13189
   D181      -0.00028   0.00014   0.00000  -0.00393  -0.00389  -0.00416
   D182       2.28624   0.00014   0.00000  -0.01125  -0.01122   2.27502
   D183      -0.83126   0.00013   0.00000  -0.00644  -0.00642  -0.83768
   D184      -0.87635   0.00012   0.00000   0.00419   0.00419  -0.87216
   D185       2.28934   0.00011   0.00000   0.00900   0.00899   2.29832
   D186      -0.10053   0.00007   0.00000   0.00025   0.00020  -0.10033
   D187       3.05384  -0.00001   0.00000   0.00560   0.00563   3.05947
   D188       3.01832   0.00007   0.00000  -0.00439  -0.00443   3.01389
   D189      -0.11049  -0.00000   0.00000   0.00096   0.00100  -0.10950
   D190       0.01926   0.00003   0.00000   0.00189   0.00190   0.02116
   D191      -3.13097  -0.00009   0.00000  -0.00149  -0.00150  -3.13247
   D192      -3.12780   0.00011   0.00000   0.00175   0.00179  -3.12601
   D193       0.00516  -0.00001   0.00000  -0.00163  -0.00161   0.00355
         Item               Value     Threshold  Converged?
 Maximum Force            0.002468     0.000450     NO 
 RMS     Force            0.000437     0.000300     NO 
 Maximum Displacement     0.345367     0.001800     NO 
 RMS     Displacement     0.056069     0.001200     NO 
 Predicted change in Energy=-1.316473D-03
 GradGradGradGradGradGradGradGradGradGradGradGradGradGradGradGradGradGrad

 Stoichiometry    C34H21BrMnN3O3
 Framework group  C1[X(C34H21BrMnN3O3)]
 Deg. of freedom   183
 Full point group                 C1      NOp   1
 Largest Abelian subgroup         C1      NOp   1
 Largest concise Abelian subgroup C1      NOp   1
                         Standard orientation:                         
 ---------------------------------------------------------------------
 Center     Atomic      Atomic             Coordinates (Angstroms)
 Number     Number       Type             X           Y           Z
 ---------------------------------------------------------------------
      1         25           0        2.239736   -1.571494   -0.843980
      2          6           0        3.167545   -3.126512   -0.486164
      3          8           0        3.723250   -4.099573   -0.278669
      4          6           0        3.559877   -0.982494   -2.001980
      5          8           0        4.334047   -0.647542   -2.765920
      6          6           0        1.400146   -2.380723   -2.207925
      7          7           0        1.297824    0.300784   -1.005222
      8          6           0        1.420920    2.653601   -0.619062
      9          6           0        0.099750    2.810140   -1.025725
     10          6           0        0.050986    0.468670   -1.459542
     11          1           0        2.021472    3.505937   -0.300107
     12          1           0       -0.376487    3.792309   -0.995885
     13          7           0        1.948757    0.751012    2.802667
     14          6           0        1.007154    1.405506    2.640526
     15          6           0       -0.171402    2.190039    2.390646
     16          6           0       -1.410600    1.544675    2.291349
     17          6           0       -2.547670    2.282887    1.975999
     18          6           0       -0.076138    3.578585    2.210932
     19          1           0       -1.476899    0.467144    2.452712
     20          1           0        0.889921    4.079415    2.296828
     21          7           0        0.830852   -2.111103    0.631198
     22          6           0        0.369640   -2.447323    2.955016
     23          6           0       -0.997676   -2.456868    2.702862
     24          1           0        0.759514   -2.565315    3.966325
     25          6           0        1.974848    1.381535   -0.578259
     26          1           0        2.987389    1.222250   -0.185917
     27          6           0        1.249094   -2.241743    1.900289
     28          1           0        2.322727   -2.163568    2.079785
     29          1           0       -3.509610    1.776514    1.878759
     30          8           0        0.843685   -2.888499   -3.069474
     31          6           0       -2.573534   -0.166971   -0.270110
     32          6           0       -5.236024   -0.168878   -1.051115
     33          6           0       -0.631667    1.689350   -1.428522
     34          6           0       -2.077815    1.752689   -1.770968
     35          6           0       -2.570566    2.707185   -2.624720
     36          6           0       -3.952528    2.747366   -2.972772
     37          6           0       -4.825823    1.817973   -2.482772
     38          6           0       -4.373016    0.799801   -1.583453
     39          6           0       -2.990974    0.786860   -1.198085
     40          1           0       -1.890589    3.434235   -3.074663
     41          1           0       -4.302334    3.521212   -3.658659
     42          1           0       -5.879089    1.836116   -2.771824
     43          6           0       -3.399129   -1.187780    0.198076
     44          6           0       -4.782227   -1.174739   -0.187083
     45          6           0       -5.652202   -2.180621    0.344889
     46          6           0       -5.169278   -3.139179    1.189676
     47          6           0       -3.786398   -3.179702    1.535590
     48          6           0       -2.904004   -2.246944    1.052756
     49          1           0       -6.707396   -2.167919    0.062593
     50          1           0       -5.837018   -3.902863    1.592778
     51          1           0       -3.424150   -3.989004    2.173909
     52          6           0       -1.455160   -2.314073    1.388251
     53          1           0       -1.711696   -2.554362    3.523580
     54          6           0       -0.483018   -2.200936    0.388114
     55          1           0       -0.790695   -2.165552   -0.656824
     56          1           0       -0.446286   -0.412377   -1.865643
     57          6           0       -2.452051    3.659686    1.774960
     58          6           0       -1.221031    4.306416    1.904798
     59          1           0       -1.150413    5.385234    1.755327
     60          1           0       -3.344338    4.234856    1.520138
     61         35           0        5.503337    1.507927    0.430227
     62          1           0       -6.293305   -0.144214   -1.327965
     63          1           0       -1.560939   -0.104930    0.109472
 ---------------------------------------------------------------------
 Rotational constants (GHZ):           0.1024438           0.0580644           0.0505512
 Basis read from rwf:  (5D, 7F)
 There are   802 symmetry adapted cartesian basis functions of A   symmetry.
 There are   751 symmetry adapted basis functions of A   symmetry.
   751 basis functions,  1339 primitive gaussians,   802 cartesian basis functions
   165 alpha electrons      165 beta electrons
       nuclear repulsion energy      6049.1278653982 Hartrees.
 NAtoms=   63 NActive=   63 NUniq=   63 SFac= 1.00D+00 NAtFMM=   60 NAOKFM=T Big=T
 Integral buffers will be    131072 words long.
 Raffenetti 2 integral format.
 Two-electron integral symmetry is turned on.
 Nuclear repulsion after empirical dispersion term =     6049.0528180463 Hartrees.
 ------------------------------------------------------------------------------
 Polarizable Continuum Model (PCM)
 =================================
 Model                : PCM.
 Atomic radii         : UFF (Universal Force Field).
 Polarization charges : Total charges.
 Charge compensation  : None.
 Solution method      : On-the-fly selection.
 Cavity type          : Scaled VdW (van der Waals Surface) (Alpha=1.100).
 Cavity algorithm     : GePol (No added spheres)
                        Default sphere list used, NSphG=   63.
                        Lebedev-Laikov grids with approx.  5.0 points / Ang**2.
                        Smoothing algorithm: York/Karplus (Gamma=1.0000).
                        Polarization charges: spherical gaussians, with
                                              point-specific exponents (IZeta= 3).
                        Self-potential: point-specific (ISelfS= 7).
                        Self-field    : sphere-specific E.n sum rule (ISelfD= 2).
 1st derivatives      : Analytical E(r).r(x)/FMM algorithm (CHGder, D1EAlg=3).
                        Cavity 1st derivative terms included.
 Solvent              : TetraHydroFuran, Eps=   7.425700 Eps(inf)=   1.974025
 ------------------------------------------------------------------------------
 One-electron integrals computed using PRISM.
 PrsmSu:  requested number of processors reduced to:  11 ShMem   1 Linda.
 NBasis=   751 RedAO= T EigKep=  2.17D-04  NBF=   751
 NBsUse=   751 1.00D-06 EigRej= -1.00D+00 NBFU=   751
 Initial guess from the checkpoint file:  "checkpoint.chk"
 B after Tr=    -0.000000   -0.000000   -0.000000
         Rot=    0.999961   -0.005804   -0.001217   -0.006595 Ang=  -1.02 deg.
 ExpMin= 3.93D-02 ExpMax= 2.77D+05 ExpMxC= 1.70D+04 IAcc=3 IRadAn=         5 AccDes= 0.00D+00
 Harris functional with IExCor= 4639 and IRadAn=       5 diagonalized for initial guess.
 HarFok:  IExCor= 4639 AccDes= 0.00D+00 IRadAn=         5 IDoV= 1 UseB2=F ITyADJ=14
 ICtDFT=  3500011 ScaDFX=  1.000000  1.000000  1.000000  1.000000
 FoFCou: FMM=F IPFlag=           0 FMFlag=      100000 FMFlg1=        2001
         NFxFlg=           0 DoJE=T BraDBF=F KetDBF=T FulRan=T
         wScrn=  0.000000 ICntrl=       500 IOpCl=  0 I1Cent=   200000004 NGrid=           0
         NMat0=    1 NMatS0=      1 NMatT0=    0 NMatD0=    1 NMtDS0=    0 NMtDT0=    0
 Petite list used in FoFCou.
 Requested convergence on RMS density matrix=1.00D-08 within 128 cycles.
 Requested convergence on MAX density matrix=1.00D-06.
 Requested convergence on             energy=1.00D-06.
 No special actions if energy rises.
 CoulSu:  requested number of processors reduced to:  10 ShMem   1 Linda.
 Inv3:  Mode=1 IEnd=    65342667.
 Iteration    1 A*A^-1 deviation from unit magnitude is 3.11D-15 for   3052.
 Iteration    1 A*A^-1 deviation from orthogonality  is 2.35D-15 for   4033   3617.
 Iteration    1 A^-1*A deviation from unit magnitude is 3.11D-15 for   1752.
 Iteration    1 A^-1*A deviation from orthogonality  is 2.55D-15 for   2346   2030.
 CoulSu:  requested number of processors reduced to:  10 ShMem   1 Linda.
 CoulSu:  requested number of processors reduced to:  10 ShMem   1 Linda.
 Error on total polarization charges =  0.02667
 SCF Done:  E(RwB97XD) =  -5421.45524694     A.U. after   16 cycles
            NFock= 16  Conv=0.46D-08     -V/T= 2.0041
 PrsmSu:  requested number of processors reduced to:  11 ShMem   1 Linda.
 D1PCM: PCM CHGder 1st derivatives, ID1Alg=3 FixD1E=F DoIter=F DoCFld=F I1PDM=0.
 CoulSu:  requested number of processors reduced to:  10 ShMem   1 Linda.
 CoulSu:  requested number of processors reduced to:  10 ShMem   1 Linda.
 Calling FoFJK, ICntrl=      2127 FMM=T ISym2X=0 I1Cent= 0 IOpClX= 0 NMat=1 NMatS=1 NMatT=0.
 ***** Axes restored to original set *****
 -------------------------------------------------------------------
 Center     Atomic                   Forces (Hartrees/Bohr)
 Number     Number              X              Y              Z
 -------------------------------------------------------------------
      1       25          -0.000637592   -0.001263624   -0.000883143
      2        6          -0.000220610    0.000259130    0.000197889
      3        8           0.000005192    0.000070696    0.000117086
      4        6           0.001041045    0.001001309   -0.000038662
      5        8          -0.000570626   -0.000264144   -0.000238993
      6        6          -0.000519813    0.000519577    0.000212118
      7        7           0.000712123    0.000158756    0.001631213
      8        6           0.000000162    0.000574351    0.000469047
      9        6           0.000224794   -0.000096909   -0.000162385
     10        6          -0.000293631    0.000392720    0.000254437
     11        1           0.000142191   -0.000706519   -0.000329614
     12        1          -0.000001499    0.000087164    0.000110427
     13        7           0.000308322    0.000191918   -0.000351705
     14        6          -0.000308770   -0.000030077    0.000520249
     15        6          -0.000667435   -0.000564969   -0.001212307
     16        6           0.000713921    0.000095466   -0.000169516
     17        6          -0.000169294    0.000003547   -0.000077960
     18        6          -0.000190700   -0.000460477   -0.000127811
     19        1          -0.000310200    0.000284233   -0.000109797
     20        1           0.000208803   -0.000703828    0.000438202
     21        7           0.000504224   -0.000219595   -0.000809431
     22        6          -0.000175438    0.000082541   -0.000024610
     23        6          -0.000003648    0.000048372   -0.000154451
     24        1           0.000007453    0.000734347   -0.000297395
     25        6           0.000528218   -0.001546937   -0.000060818
     26        1          -0.000172800    0.002439949    0.000259217
     27        6          -0.000269179    0.000487553   -0.000474848
     28        1          -0.000182141    0.000036547   -0.000001122
     29        1           0.000003692    0.000082659   -0.000038546
     30        8           0.000274366   -0.000083605   -0.000116095
     31        6           0.000026115    0.000037244    0.001240650
     32        6           0.000035078    0.000082088    0.000281114
     33        6          -0.000091301    0.000016087    0.000065111
     34        6           0.000068812    0.000262253   -0.000448866
     35        6          -0.000135791   -0.000045029    0.000070531
[...]
   D48       -2.97017   0.00036   0.00000  -0.00555  -0.00555  -2.97572
   D49       -3.03972  -0.00027   0.00000  -0.00407  -0.00475  -3.04447
   D50        0.15154   0.00001   0.00000  -0.00539  -0.00605   0.14549
   D51       -2.34214  -0.00053   0.00000   0.00440   0.00530  -2.33684
   D52        0.40364  -0.00011   0.00000   0.00556   0.00532   0.40896
   D53       -2.67627   0.00009   0.00000   0.01346   0.01324  -2.66304
   D54        2.25723   0.00082   0.00000   0.01405   0.01391   2.27114
   D55       -3.05358  -0.00015   0.00000   0.00662   0.00661  -3.04697
   D56        0.07657   0.00013   0.00000   0.00274   0.00263   0.07920
   D57        0.03924  -0.00015   0.00000  -0.00157  -0.00159   0.03765
   D58       -3.11380   0.00013   0.00000  -0.00545  -0.00558  -3.11937
   D59       -0.06172   0.00017   0.00000  -0.00563  -0.00565  -0.06737
   D60        3.06622   0.00003   0.00000  -0.00643  -0.00642   3.05979
   D61        3.12902   0.00018   0.00000   0.00257   0.00257   3.13159
   D62       -0.02623   0.00004   0.00000   0.00177   0.00180  -0.02444
   D63        3.11400   0.00015   0.00000  -0.00083  -0.00086   3.11315
   D64       -0.02028   0.00014   0.00000  -0.00032  -0.00032  -0.02060
   D65       -0.01602  -0.00013   0.00000   0.00310   0.00318  -0.01284
   D66        3.13288  -0.00014   0.00000   0.00361   0.00372   3.13660
   D67       -0.84324  -0.00066   0.00000   0.00590   0.00600  -0.83724
   D68        2.28678  -0.00037   0.00000   0.00197   0.00197   2.28875
   D69       -0.01131  -0.00002   0.00000   0.00200   0.00202  -0.00929
   D70        3.13612  -0.00002   0.00000   0.00018   0.00018   3.13630
   D71        3.13765  -0.00003   0.00000   0.00251   0.00255   3.14021
   D72        0.00190  -0.00003   0.00000   0.00070   0.00071   0.00261
   D73       -0.13859  -0.00026   0.00000  -0.00150  -0.00150  -0.14009
   D74        3.01687  -0.00012   0.00000  -0.00068  -0.00070   3.01617
   D75       -0.00557   0.00008   0.00000  -0.00009  -0.00011  -0.00567
   D76       -3.13621   0.00003   0.00000  -0.00019  -0.00020  -3.13642
   D77        3.12224  -0.00006   0.00000  -0.00093  -0.00092   3.12132
   D78       -0.00840  -0.00011   0.00000  -0.00103  -0.00102  -0.00942
   D79        0.90840  -0.00009   0.00000   0.00277   0.00278   0.91118
   D80        2.99751   0.00042   0.00000   0.01063   0.01073   3.00824
   D81       -0.12068   0.00024   0.00000   0.01259   0.01252  -0.10816
   D82       -0.01456   0.00011   0.00000   0.00267   0.00282  -0.01174
   D83       -3.13275  -0.00007   0.00000   0.00462   0.00461  -3.12814
   D84       -2.93241  -0.00036   0.00000  -0.00904  -0.00887  -2.94128
   D85        0.19901  -0.00018   0.00000  -0.00616  -0.00620   0.19281
   D86        0.07589  -0.00006   0.00000  -0.00097  -0.00090   0.07500
   D87       -3.07587   0.00013   0.00000   0.00191   0.00176  -3.07410
   D88        3.11788   0.00045   0.00000   0.00196   0.00196   3.11984
   D89       -0.00220   0.00028   0.00000   0.00276   0.00289   0.00069
   D90        0.03756   0.00010   0.00000  -0.00055  -0.00054   0.03702
   D91       -3.08252  -0.00007   0.00000   0.00024   0.00038  -3.08214
   D92       -1.73423   0.00025   0.00000  -0.00201  -0.00232  -1.73655
   D93        1.34604   0.00059   0.00000   0.00049   0.00017   1.34621
   D94       -0.04090  -0.00013   0.00000  -0.00192  -0.00213  -0.04303
   D95        3.07641   0.00005   0.00000  -0.00402  -0.00406   3.07235
   D96       -3.12242  -0.00046   0.00000  -0.00437  -0.00456  -3.12698
   D97       -0.00512  -0.00028   0.00000  -0.00646  -0.00649  -0.01161
   D98       -3.09993  -0.00011   0.00000  -0.00204  -0.00171  -3.10164
   D99        0.01743  -0.00006   0.00000   0.00209   0.00229   0.01972
   D100       0.02026   0.00006   0.00000  -0.00284  -0.00264   0.01762
   D101       3.13762   0.00011   0.00000   0.00129   0.00136   3.13898
   D102      -0.22082   0.00037   0.00000  -0.18769  -0.18622  -0.40704
   D103       2.92199  -0.00029   0.00000  -0.18952  -0.18494   2.73705
   D104      -3.03105  -0.00010   0.00000   0.00082   0.00069  -3.03036
   D105       0.10800  -0.00001   0.00000  -0.00047  -0.00052   0.10748
   D106      -3.12802  -0.00008   0.00000   0.00164   0.00161  -3.12641
   D107       0.01102   0.00002   0.00000   0.00035   0.00040   0.01143
   D108       0.11333   0.00002   0.00000  -0.00105  -0.00107   0.11225
   D109      -3.03081   0.00012   0.00000  -0.00234  -0.00228  -3.03309
   D110      -0.10590   0.00015   0.00000  -0.00023  -0.00013  -0.10603
   D111       3.03021   0.00021   0.00000  -0.00012   0.00007   3.03028
   D112      -0.00895   0.00013   0.00000  -0.00105  -0.00103  -0.00998
   D113       3.12716   0.00018   0.00000  -0.00093  -0.00083   3.12634
   D114       3.03292   0.00003   0.00000   0.00163   0.00162   3.03454
   D115      -0.11416   0.00008   0.00000   0.00174   0.00183  -0.11233
   D116      -1.85113  -0.00042   0.00000   0.00085   0.00135  -1.84978
   D117       1.38278  -0.00044   0.00000   0.00006   0.00047   1.38325
   D118       3.13332   0.00004   0.00000   0.00049   0.00066   3.13398
   D119      -0.02417   0.00004   0.00000   0.00037   0.00052  -0.02366
   D120       0.00292  -0.00004   0.00000   0.00190   0.00197   0.00489
   D121       3.12861  -0.00005   0.00000   0.00178   0.00183   3.13044
   D122      -3.07965   0.00007   0.00000  -0.00068  -0.00062  -3.08027
   D123       0.04604   0.00007   0.00000  -0.00080  -0.00076   0.04528
   D124       0.02627   0.00011   0.00000  -0.00110  -0.00119   0.02507
   D125      -3.13152   0.00007   0.00000  -0.00168  -0.00184  -3.13336
   D126      -3.12652   0.00020   0.00000  -0.00250  -0.00250  -3.12902
   D127      -0.00113   0.00016   0.00000  -0.00308  -0.00314  -0.00427
   D128      -0.04395   0.00008   0.00000   0.00010   0.00011  -0.04384
   D129       3.08145   0.00004   0.00000  -0.00048  -0.00053   3.08092
   D130       0.89747   0.00044   0.00000   0.00321   0.00353   0.90100
   D131      -2.25542   0.00053   0.00000  -0.00052  -0.00036  -2.25577
   D132      -2.29712   0.00017   0.00000   0.00464   0.00491  -2.29221
   D133       0.83318   0.00027   0.00000   0.00091   0.00102   0.83420
   D134       3.10807  -0.00002   0.00000  -0.00396  -0.00420   3.10388
   D135       0.00301   0.00002   0.00000  -0.00302  -0.00316  -0.00016
   D136      -0.02222  -0.00011   0.00000  -0.00024  -0.00033  -0.02255
   D137      -3.12729  -0.00007   0.00000   0.00070   0.00071  -3.12658
   D138       0.07130   0.00009   0.00000   0.00325   0.00357   0.07487
   D139      -3.06771  -0.00001   0.00000   0.00456   0.00480  -3.06291
   D140      -3.08125   0.00018   0.00000  -0.00037  -0.00019  -3.08144
   D141       0.06292   0.00009   0.00000   0.00094   0.00104   0.06396
   D142      -0.02345   0.00006   0.00000  -0.00045  -0.00043  -0.02388
   D143      -3.13863   0.00007   0.00000   0.00032   0.00036  -3.13826
   D144       3.08183   0.00001   0.00000  -0.00137  -0.00146   3.08038
   D145      -0.03334   0.00002   0.00000  -0.00061  -0.00066  -0.03400
   D146       0.02761   0.00003   0.00000   0.00045   0.00051   0.02813
   D147      -3.11233   0.00000   0.00000   0.00083   0.00083  -3.11150
   D148      -3.14071   0.00002   0.00000  -0.00032  -0.00029  -3.14100
   D149       0.00253  -0.00001   0.00000   0.00006   0.00003   0.00255
   D150       3.13929  -0.00006   0.00000   0.00011   0.00003   3.13932
   D151       0.01352  -0.00005   0.00000   0.00023   0.00017   0.01369
   D152      -0.00392  -0.00003   0.00000  -0.00026  -0.00028  -0.00420
   D153      -3.12968  -0.00002   0.00000  -0.00015  -0.00015  -3.12983
   D154      -0.04072  -0.00009   0.00000   0.00043   0.00035  -0.04037
   D155       3.09838   0.00000   0.00000  -0.00083  -0.00084   3.09754
   D156       3.08561  -0.00009   0.00000   0.00033   0.00023   3.08583
   D157      -0.05848  -0.00000   0.00000  -0.00094  -0.00096  -0.05944
   D158       0.03659  -0.00019   0.00000   0.00101   0.00097   0.03756
   D159      -3.08945  -0.00015   0.00000   0.00157   0.00159  -3.08786
   D160      -3.09964  -0.00025   0.00000   0.00089   0.00077  -3.09887
   D161       0.05751  -0.00021   0.00000   0.00145   0.00139   0.05890
   D162       3.08564   0.00022   0.00000  -0.00202  -0.00214   3.08350
   D163      -0.07283   0.00024   0.00000  -0.00430  -0.00425  -0.07708
   D164      -0.06151   0.00027   0.00000  -0.00191  -0.00193  -0.06345
   D165       3.06321   0.00029   0.00000  -0.00419  -0.00404   3.05916
   D166      -3.13896   0.00004   0.00000   0.00057   0.00072  -3.13825
   D167       0.00331   0.00011   0.00000   0.00071   0.00077   0.00409
   D168      -0.01350   0.00000   0.00000  -0.00000   0.00008  -0.01341
   D169       3.12878   0.00007   0.00000   0.00013   0.00014   3.12892
   D170      -0.02706   0.00014   0.00000  -0.00100  -0.00102  -0.02808
   D171       3.14004   0.00007   0.00000  -0.00003  -0.00008   3.13995
   D172       3.11383   0.00007   0.00000  -0.00114  -0.00108   3.11275
   D173      -0.00226   0.00001   0.00000  -0.00016  -0.00015  -0.00240
   D174       0.02330  -0.00007   0.00000   0.00054   0.00046   0.02376
   D175      -3.08434  -0.00010   0.00000   0.00224   0.00220  -3.08214
   D176       3.13969  -0.00000   0.00000  -0.00042  -0.00046   3.13924
   D177       0.03206  -0.00003   0.00000   0.00128   0.00128   0.03334
   D178       0.02142  -0.00014   0.00000   0.00092   0.00102   0.02244
   D179      -3.10306  -0.00016   0.00000   0.00322   0.00315  -3.09991
   D180       3.12883  -0.00011   0.00000  -0.00081  -0.00074   3.12808
   D181       0.00435  -0.00013   0.00000   0.00150   0.00139   0.00574
   D182       2.26456   0.00019   0.00000   0.01201   0.01147   2.27603
   D183      -0.85192   0.00014   0.00000   0.00773   0.00732  -0.84460
   D184      -0.89429   0.00021   0.00000   0.00968   0.00931  -0.88498
   D185       2.27241   0.00016   0.00000   0.00540   0.00516   2.27757
   D186      -0.07711   0.00004   0.00000  -0.00137  -0.00162  -0.07873
   D187       3.07492  -0.00015   0.00000  -0.00432  -0.00435   3.07057
   D188       3.04078   0.00009   0.00000   0.00269   0.00230   3.04308
   D189      -0.09038  -0.00010   0.00000  -0.00027  -0.00043  -0.09081
   D190       0.02438  -0.00009   0.00000  -0.00179  -0.00180   0.02258
   D191      -3.12821  -0.00003   0.00000  -0.00169  -0.00170  -3.12991
   D192      -3.12305  -0.00009   0.00000   0.00003   0.00004  -3.12301
   D193       0.00754  -0.00003   0.00000   0.00013   0.00014   0.00768
         Item               Value     Threshold  Converged?
 Maximum Force            0.005138     0.000450     NO 
 RMS     Force            0.000498     0.000300     NO 
 Maximum Displacement     0.338387     0.001800     NO 
 RMS     Displacement     0.023777     0.001200     NO 
 Predicted change in Energy=-1.981046D-03
 GradGradGradGradGradGradGradGradGradGradGradGradGradGradGradGradGradGrad

 Stoichiometry    C34H21BrMnN3O3
 Framework group  C1[X(C34H21BrMnN3O3)]
 Deg. of freedom   183
 Full point group                 C1      NOp   1
 Largest Abelian subgroup         C1      NOp   1
 Largest concise Abelian subgroup C1      NOp   1
                         Standard orientation:                         
 ---------------------------------------------------------------------
 Center     Atomic      Atomic             Coordinates (Angstroms)
 Number     Number       Type             X           Y           Z
 ---------------------------------------------------------------------
      1         25           0        2.514991   -0.935706   -0.935568
      2          6           0        3.794061   -2.209486   -0.581702
      3          8           0        4.590084   -3.000119   -0.375380
      4          6           0        3.604721   -0.150166   -2.204395
      5          8           0        4.252811    0.304322   -3.024629
      6          6           0        1.776318   -1.974831   -2.185521
      7          7           0        1.178641    0.685018   -1.092008
      8          6           0        0.823543    3.013081   -0.701288
      9          6           0       -0.511300    2.890937   -1.081779
     10          6           0       -0.079609    0.589968   -1.528384
     11          1           0        1.235688    3.969612   -0.381156
     12          1           0       -1.182426    3.751123   -1.031345
     13          7           0        1.651081    1.280531    2.699073
     14          6           0        0.636970    1.815848    2.542095
     15          6           0       -0.620047    2.472008    2.310888
     16          6           0       -1.774710    1.700035    2.136353
     17          6           0       -2.973292    2.321307    1.800081
     18          6           0       -0.671282    3.868389    2.194002
     19          1           0       -1.721226    0.616798    2.251357
     20          1           0        0.234581    4.458215    2.341824
     21          7           0        1.318233   -1.666404    0.629643
     22          6           0        0.999329   -1.961348    2.979860
     23          6           0       -0.341044   -2.271087    2.782382
     24          1           0        1.427083   -1.912177    3.980967
     25          6           0        1.627948    1.882797   -0.681882
     26          1           0        2.668892    1.867432   -0.343445
     27          6           0        1.791142   -1.640842    1.883695
     28          1           0        2.829939   -1.330915    2.012490
     29          1           0       -3.867831    1.717218    1.637718
     30          8           0        1.304129   -2.638996   -2.993041
     31          6           0       -2.460380   -0.529397   -0.217398
     32          6           0       -5.060966   -1.176073   -0.950787
     33          6           0       -0.999301    1.644748   -1.482654
     34          6           0       -2.432512    1.390190   -1.792668
     35          6           0       -3.137115    2.177804   -2.666767
     36          6           0       -4.497497    1.891297   -2.986473
     37          6           0       -5.131250    0.805317   -2.451219
     38          6           0       -4.450379   -0.051960   -1.527634
     39          6           0       -3.098411    0.266968   -1.167561
     40          1           0       -2.642519    3.020095   -3.156098
     41          1           0       -5.022809    2.540661   -3.689391
     42          1           0       -6.164357    0.574755   -2.721181
     43          6           0       -3.026709   -1.690600    0.306218
     44          6           0       -4.378969   -2.011762   -0.054669
     45          6           0       -4.987799   -3.167555    0.533214
     46          6           0       -4.287896   -3.952616    1.405045
     47          6           0       -2.928341   -3.661160    1.723585
     48          6           0       -2.289767   -2.571402    1.188551
     49          1           0       -6.020340   -3.409993    0.271603
     50          1           0       -4.757994   -4.831195    1.850861
     51          1           0       -2.380889   -4.341055    2.380661
     52          6           0       -0.854886   -2.297575    1.480449
     53          1           0       -0.995461   -2.471821    3.633460
     54          6           0        0.042003   -2.027679    0.442618
     55          1           0       -0.297333   -2.102666   -0.590438
     56          1           0       -0.392037   -0.378111   -1.921837
     57          6           0       -3.023433    3.708905    1.663243
     58          6           0       -1.878300    4.480880    1.872938
     59          1           0       -1.924481    5.566905    1.775542
     60          1           0       -3.963709    4.194286    1.394455
     61         35           0        4.920575    0.933515    0.582061
     62          1           0       -6.095786   -1.414494   -1.216509
     63          1           0       -1.478788   -0.230357    0.130350
 ---------------------------------------------------------------------
 Rotational constants (GHZ):           0.1067930           0.0603090           0.0538856
 Basis read from rwf:  (5D, 7F)
 There are   802 symmetry adapted cartesian basis functions of A   symmetry.
 There are   751 symmetry adapted basis functions of A   symmetry.
   751 basis functions,  1339 primitive gaussians,   802 cartesian basis functions
   165 alpha electrons      165 beta electrons
       nuclear repulsion energy      6164.0161817654 Hartrees.
 NAtoms=   63 NActive=   63 NUniq=   63 SFac= 1.00D+00 NAtFMM=   60 NAOKFM=T Big=T
 Integral buffers will be    131072 words long.
 Raffenetti 2 integral format.
 Two-electron integral symmetry is turned on.
 Nuclear repulsion after empirical dispersion term =     6163.9402860870 Hartrees.
 ------------------------------------------------------------------------------
 Polarizable Continuum Model (PCM)
 =================================
 Model                : PCM.
 Atomic radii         : UFF (Universal Force Field).
 Polarization charges : Total charges.
 Charge compensation  : None.
 Solution method      : On-the-fly selection.
 Cavity type          : Scaled VdW (van der Waals Surface) (Alpha=1.100).
 Cavity algorithm     : GePol (No added spheres)
                        Default sphere list used, NSphG=   63.
                        Lebedev-Laikov grids with approx.  5.0 points / Ang**2.
                        Smoothing algorithm: York/Karplus (Gamma=1.0000).
                        Polarization charges: spherical gaussians, with
                                              point-specific exponents (IZeta= 3).
                        Self-potential: point-specific (ISelfS= 7).
                        Self-field    : sphere-specific E.n sum rule (ISelfD= 2).
 1st derivatives      : Analytical E(r).r(x)/FMM algorithm (CHGder, D1EAlg=3).
                        Cavity 1st derivative terms included.
 Solvent              : TetraHydroFuran, Eps=   7.425700 Eps(inf)=   1.974025
 ------------------------------------------------------------------------------
 One-electron integrals computed using PRISM.
 PrsmSu:  requested number of processors reduced to:  11 ShMem   1 Linda.
 NBasis=   751 RedAO= T EigKep=  2.16D-04  NBF=   751
 NBsUse=   751 1.00D-06 EigRej= -1.00D+00 NBFU=   751
 Initial guess from the checkpoint file:  "checkpoint.chk"
 B after Tr=     0.000000   -0.000000   -0.000000
         Rot=    0.999956   -0.005334   -0.000518   -0.007704 Ang=  -1.08 deg.
 ExpMin= 3.93D-02 ExpMax= 2.77D+05 ExpMxC= 1.70D+04 IAcc=3 IRadAn=         5 AccDes= 0.00D+00
 Harris functional with IExCor= 4639 and IRadAn=       5 diagonalized for initial guess.
 HarFok:  IExCor= 4639 AccDes= 0.00D+00 IRadAn=         5 IDoV= 1 UseB2=F ITyADJ=14
 ICtDFT=  3500011 ScaDFX=  1.000000  1.000000  1.000000  1.000000
 FoFCou: FMM=F IPFlag=           0 FMFlag=      100000 FMFlg1=        2001
         NFxFlg=           0 DoJE=T BraDBF=F KetDBF=T FulRan=T
         wScrn=  0.000000 ICntrl=       500 IOpCl=  0 I1Cent=   200000004 NGrid=           0
         NMat0=    1 NMatS0=      1 NMatT0=    0 NMatD0=    1 NMtDS0=    0 NMtDT0=    0
 Petite list used in FoFCou.
 Requested convergence on RMS density matrix=1.00D-08 within 128 cycles.
 Requested convergence on MAX density matrix=1.00D-06.
 Requested convergence on             energy=1.00D-06.
 No special actions if energy rises.
 CoulSu:  requested number of processors reduced to:  11 ShMem   1 Linda.
 Inv3:  Mode=1 IEnd=    60777003.
 Iteration    1 A*A^-1 deviation from unit magnitude is 3.11D-15 for   3008.
 Iteration    1 A*A^-1 deviation from orthogonality  is 2.48D-15 for   3188   3078.
 Iteration    1 A^-1*A deviation from unit magnitude is 3.11D-15 for   3039.
 Iteration    1 A^-1*A deviation from orthogonality  is 3.44D-15 for   3932    623.
 CoulSu:  requested number of processors reduced to:  11 ShMem   1 Linda.
 CoulSu:  requested number of processors reduced to:  11 ShMem   1 Linda.
