 Entering Gaussian System, Link 0=g16
 Initial command:
 /home1/apps/gaussian/16rA.03/g16/l1.exe "/tmp/Gau-5276.inp" -scrdir="/tmp/"
 Entering Link 1 = /home1/apps/gaussian/16rA.03/g16/l1.exe PID=      5278.
  
 Copyright (c) 1988,1990,1992,1993,1995,1998,2003,2009,2016,
            Gaussian, Inc.  All Rights Reserved.
  
 This is part of the Gaussian(R) 16 program.  It is based on
 the Gaussian(R) 09 system (copyright 2009, Gaussian, Inc.),
 the Gaussian(R) 03 system (copyright 2003, Gaussian, Inc.),
 the Gaussian(R) 98 system (copyright 1998, Gaussian, Inc.),
 the Gaussian(R) 94 system (copyright 1995, Gaussian, Inc.),
 the Gaussian 92(TM) system (copyright 1992, Gaussian, Inc.),
 the Gaussian 90(TM) system (copyright 1990, Gaussian, Inc.),
 the Gaussian 88(TM) system (copyright 1988, Gaussian, Inc.),
 the Gaussian 86(TM) system (copyright 1986, Carnegie Mellon
 University), and the Gaussian 82(TM) system (copyright 1983,
 Carnegie Mellon University). Gaussian is a federally registered
 trademark of Gaussian, Inc.
  
 This software contains proprietary and confidential information,
 including trade secrets, belonging to Gaussian, Inc.
  
 This software is provided under written license and may be
 used, copied, transmitted, or stored only in accord with that
 written license.
  
 The following legend is applicable only to US Government
 contracts under FAR:
  
                    RESTRICTED RIGHTS LEGEND
  
 Use, reproduction and disclosure by the US Government is
 subject to restrictions as set forth in subparagraphs (a)
 and (c) of the Commercial Computer Software - Restricted
 Rights clause in FAR 52.227-19.
  
 Gaussian, Inc.
 340 Quinnipiac St., Bldg. 40, Wallingford CT 06492
  
  
 ---------------------------------------------------------------
 Warning -- This program may not be used in any manner that
 competes with the business of Gaussian, Inc. or will provide
 assistance to any competitor of Gaussian, Inc.  The licensee
 of this program is prohibited from giving any competitor of
 Gaussian, Inc. access to this program.  By using this program,
 the user acknowledges that Gaussian, Inc. is engaged in the
 business of creating and licensing software in the field of
 computational chemistry and represents and warrants to the
 licensee that it is not a competitor of Gaussian, Inc. and that
 it will not use this program in any manner prohibited above.
 ---------------------------------------------------------------
  

 Cite this work as:
 Gaussian 16, Revision A.03,
 M. J. Frisch, G. W. Trucks, H. B. Schlegel, G. E. Scuseria, 
 M. A. Robb, J. R. Cheeseman, G. Scalmani, V. Barone, 
 G. A. Petersson, H. Nakatsuji, X. Li, M. Caricato, A. V. Marenich, 
 J. Bloino, B. G. Janesko, R. Gomperts, B. Mennucci, H. P. Hratchian, 
 J. V. Ortiz, A. F. Izmaylov, J. L. Sonnenberg, D. Williams-Young, 
 F. Ding, F. Lipparini, F. Egidi, J. Goings, B. Peng, A. Petrone, 
 T. Henderson, D. Ranasinghe, V. G. Zakrzewski, J. Gao, N. Rega, 
 G. Zheng, W. Liang, M. Hada, M. Ehara, K. Toyota, R. Fukuda, 
 J. Hasegawa, M. Ishida, T. Nakajima, Y. Honda, O. Kitao, H. Nakai, 
 T. Vreven, K. Throssell, J. A. Montgomery, Jr., J. E. Peralta, 
 F. Ogliaro, M. J. Bearpark, J. J. Heyd, E. N. Brothers, K. N. Kudin, 
 V. N. Staroverov, T. A. Keith, R. Kobayashi, J. Normand, 
 K. Raghavachari, A. P. Rendell, J. C. Burant, S. S. Iyengar, 
 J. Tomasi, M. Cossi, J. M. Millam, M. Klene, C. Adamo, R. Cammi, 
 J. W. Ochterski, R. L. Martin, K. Morokuma, O. Farkas, 
 J. B. Foresman, and D. J. Fox, Gaussian, Inc., Wallingford CT, 2016.
 
 ******************************************
 Gaussian 16:  ES64L-G16RevA.03 25-Dec-2016
                20-Dec-2022 
 ******************************************
 %NProcShared=12
 Will use up to   12 processors via shared memory.
 %Chk=checkpoint.chk
 -----------------------------------------------
 # wB97XD Gen SCRF=(Solvent=TetraHydroFuran) Opt
 -----------------------------------------------
 1/18=20,19=15,26=3,38=1/1,3;
 2/9=110,12=2,17=6,18=5,40=1/2;
 3/5=7,11=2,25=1,30=1,70=2201,71=1,72=20,74=-58/1,2,3;
 4//1;
 5/5=2,38=5,53=20/2;
 6/7=2,8=2,9=2,10=2,28=1/1;
 7//1,2,3,16;
 1/18=20,19=15,26=3/3(2);
 2/9=110/2;
 99//99;
 2/9=110/2;
 3/5=7,6=1,11=2,25=1,30=1,70=2205,71=1,72=20,74=-58,82=7/1,2,3;
 4/5=5,16=3,69=1/1;
 5/5=2,38=5,53=20/2;
 7//1,2,3,16;
 1/18=20,19=15,26=3/3(-5);
 2/9=110/2;
 6/7=2,8=2,9=2,10=2,19=2,28=1/1;
 99/9=1/99;
 ----------------------
 Anth Prod Optimization
 ----------------------
 Symbolic Z-matrix:
 Charge =  0 Multiplicity = 1
 Mn                    8.78769   2.99011   14.21267 
 C                     10.46982   3.50973   14.64234 
 O                     11.52624   3.84687   14.92604 
 C                     9.00163   3.43765   12.46725 
 O                     9.122     3.72324   11.36543 
 C                     9.38132   1.33122   13.87077 
 N                     6.71151   2.48437   13.81864 
 C                     4.45445   3.09298   13.29389 
 C                     4.02293   1.78502   13.49496 
 C                     6.29599   1.22234   13.95902 
 H                     3.75401   3.88118   13.01254 
 H                     2.96846   1.51811   13.38787 
 N                     5.088     3.47347   16.8472 
 C                     5.11287   4.62989   16.88594 
 C                     5.16761   6.06804   16.92592 
 C                     4.57514   6.81369   15.89852 
 C                     4.65422   8.20243   15.92966 
 C                     5.83456   6.70709   17.97941 
 H                     4.06357   6.30307   15.08015 
 H                     6.29417   6.11384   18.77275 
 N                     8.39191   2.54357   16.30703 
 C                     8.22036   3.19948   18.60446 
 C                     7.82438   1.91665   18.97258 
 H                     8.31909   3.99416   19.3461 
 C                     5.79479   3.40468   13.48051 
 H                     6.15664   4.42954   13.37658 
 C                     8.48008   3.47599   17.26857 
 H                     8.75526   4.48161   16.94359 
 H                     4.19504   8.78856   15.13013 
 O                     9.83642   0.30849   13.60624 
 C                     5.04386  -0.08366   16.78739 
 C                     4.47581  -3.18537   17.25719 
 C                     4.9655    0.81917   13.84466 
 C                     4.61877  -0.60832   14.10629 
 C                     4.21825  -1.4384    13.05462 
 C                     3.95151  -2.78807   13.27329 
 C                     4.0833   -3.33076   14.5484 
 C                     4.4382   -2.50593   15.61842 
 C                     4.70288  -1.14669   15.40471 
 H                     4.13787  -1.01829   12.04887 
 H                     3.65529  -3.42789   12.43886 
 H                     3.90002  -4.3943    14.7202 
 C                     6.20617  -1.0719    17.69973 
 C                     5.93735  -2.42946   17.92302 
 C                     6.78925  -3.19595   18.72147 
 C                     7.88677  -2.59563   19.3314 
 C                     8.16506  -1.25023   19.10392 
 C                     7.34979  -0.47741   18.26926 
 H                     6.58362  -4.2586    18.87233 
 H                     8.54305  -3.18911   19.97215 
 H                     9.04606  -0.78965   19.55818 
 C                     7.72793   0.93779   17.98374 
 H                     7.59261   1.67801   20.01388 
 C                     8.04719   1.30703   16.67621 
 H                     8.02561   0.5386    15.90361 
 H                     7.05069   0.46472   14.17345 
 C                     5.32028   8.84255   16.97597 
 C                     5.90799   8.09667   17.99879 
 H                     6.42716   8.60041   18.81756 
 H                     5.38196   9.93365   16.99512 
 Br                    8.2182    5.50804   14.55493 
 H                     5.20607   0.90478   16.69744 
 H                     4.32577  -4.24327   17.39434 
 
 Add virtual bond connecting atoms N7         and Mn1        Dist= 4.11D+00.
 Add virtual bond connecting atoms N21        and Mn1        Dist= 4.12D+00.
 Add virtual bond connecting atoms H62        and N13        Dist= 4.87D+00.

 GradGradGradGradGradGradGradGradGradGradGradGradGradGradGradGradGradGrad
 Berny optimization.
 Initialization pass.
                           ----------------------------
                           !    Initial Parameters    !
                           ! (Angstroms and Degrees)  !
 --------------------------                            --------------------------
 ! Name  Definition              Value          Derivative Info.                !
 --------------------------------------------------------------------------------
 ! R1    R(1,2)                  1.8122         estimate D2E/DX2                !
 ! R2    R(1,4)                  1.8145         estimate D2E/DX2                !
 ! R3    R(1,6)                  1.7948         estimate D2E/DX2                !
 ! R4    R(1,7)                  2.1729         estimate D2E/DX2                !
 ! R5    R(1,21)                 2.1777         estimate D2E/DX2                !
 ! R6    R(1,61)                 2.6041         estimate D2E/DX2                !
 ! R7    R(2,3)                  1.1446         estimate D2E/DX2                !
 ! R8    R(4,5)                  1.1446         estimate D2E/DX2                !
 ! R9    R(6,30)                 1.1502         estimate D2E/DX2                !
 ! R10   R(7,10)                 1.3361         estimate D2E/DX2                !
 ! R11   R(7,25)                 1.3423         estimate D2E/DX2                !
 ! R12   R(8,9)                  1.3919         estimate D2E/DX2                !
 ! R13   R(8,11)                 1.0913         estimate D2E/DX2                !
 ! R14   R(8,25)                 1.3887         estimate D2E/DX2                !
 ! R15   R(9,12)                 1.093          estimate D2E/DX2                !
 ! R16   R(9,33)                 1.3941         estimate D2E/DX2                !
 ! R17   R(10,33)                1.3949         estimate D2E/DX2                !
 ! R18   R(10,56)                1.0907         estimate D2E/DX2                !
 ! R19   R(13,14)                1.1573         estimate D2E/DX2                !
 ! R20   R(13,62)                2.5758         estimate D2E/DX2                !
 ! R21   R(14,15)                1.4397         estimate D2E/DX2                !
 ! R22   R(15,16)                1.4009         estimate D2E/DX2                !
 ! R23   R(15,18)                1.4011         estimate D2E/DX2                !
 ! R24   R(16,17)                1.3913         estimate D2E/DX2                !
 ! R25   R(16,19)                1.0919         estimate D2E/DX2                !
 ! R26   R(17,29)                1.0925         estimate D2E/DX2                !
 ! R27   R(17,57)                1.3958         estimate D2E/DX2                !
 ! R28   R(18,20)                1.0921         estimate D2E/DX2                !
 ! R29   R(18,58)                1.3917         estimate D2E/DX2                !
 ! R30   R(21,27)                1.3423         estimate D2E/DX2                !
 ! R31   R(21,54)                1.3357         estimate D2E/DX2                !
 ! R32   R(22,23)                1.3921         estimate D2E/DX2                !
 ! R33   R(22,24)                1.0915         estimate D2E/DX2                !
 ! R34   R(22,27)                1.3887         estimate D2E/DX2                !
 ! R35   R(23,52)                1.3947         estimate D2E/DX2                !
 ! R36   R(23,53)                1.0931         estimate D2E/DX2                !
 ! R37   R(25,26)                1.0918         estimate D2E/DX2                !
 ! R38   R(27,28)                1.0921         estimate D2E/DX2                !
 ! R39   R(31,39)                1.7771         estimate D2E/DX2                !
 ! R40   R(31,43)                1.7776         estimate D2E/DX2                !
 ! R41   R(31,62)                1.0057         estimate D2E/DX2                !
 ! R42   R(32,38)                1.7744         estimate D2E/DX2                !
 ! R43   R(32,44)                1.7751         estimate D2E/DX2                !
 ! R44   R(32,63)                1.0773         estimate D2E/DX2                !
 ! R45   R(33,34)                1.4921         estimate D2E/DX2                !
 ! R46   R(34,35)                1.3984         estimate D2E/DX2                !
 ! R47   R(34,39)                1.4081         estimate D2E/DX2                !
 ! R48   R(35,36)                1.393          estimate D2E/DX2                !
 ! R49   R(35,40)                1.0929         estimate D2E/DX2                !
 ! R50   R(36,37)                1.392          estimate D2E/DX2                !
 ! R51   R(36,41)                1.0924         estimate D2E/DX2                !
 ! R52   R(37,38)                1.3969         estimate D2E/DX2                !
 ! R53   R(37,42)                1.0928         estimate D2E/DX2                !
 ! R54   R(38,39)                1.4012         estimate D2E/DX2                !
 ! R55   R(43,44)                1.4018         estimate D2E/DX2                !
 ! R56   R(43,48)                1.4091         estimate D2E/DX2                !
 ! R57   R(44,45)                1.3967         estimate D2E/DX2                !
 ! R58   R(45,46)                1.3917         estimate D2E/DX2                !
 ! R59   R(45,49)                1.0928         estimate D2E/DX2                !
 ! R60   R(46,47)                1.3926         estimate D2E/DX2                !
 ! R61   R(46,50)                1.0925         estimate D2E/DX2                !
 ! R62   R(47,48)                1.3995         estimate D2E/DX2                !
 ! R63   R(47,51)                1.093          estimate D2E/DX2                !
 ! R64   R(48,52)                1.4924         estimate D2E/DX2                !
 ! R65   R(52,54)                1.3957         estimate D2E/DX2                !
 ! R66   R(54,55)                1.0899         estimate D2E/DX2                !
 ! R67   R(57,58)                1.3957         estimate D2E/DX2                !
 ! R68   R(57,60)                1.093          estimate D2E/DX2                !
 ! R69   R(58,59)                1.0926         estimate D2E/DX2                !
 ! A1    A(2,1,4)               92.7458         estimate D2E/DX2                !
 ! A2    A(2,1,6)               90.182          estimate D2E/DX2                !
 ! A3    A(2,1,21)              89.9695         estimate D2E/DX2                !
 ! A4    A(2,1,61)              83.9491         estimate D2E/DX2                !
 ! A5    A(4,1,6)               90.3283         estimate D2E/DX2                !
 ! A6    A(4,1,7)               89.7496         estimate D2E/DX2                !
 ! A7    A(4,1,61)              85.0509         estimate D2E/DX2                !
 ! A8    A(6,1,7)               93.8049         estimate D2E/DX2                !
 ! A9    A(6,1,21)              93.0836         estimate D2E/DX2                !
 ! A10   A(7,1,21)              87.3073         estimate D2E/DX2                !
 ! A11   A(7,1,61)              92.2881         estimate D2E/DX2                !
 ! A12   A(21,1,61)             91.8406         estimate D2E/DX2                !
 ! A13   A(1,7,10)             119.8647         estimate D2E/DX2                !
 ! A14   A(1,7,25)             122.5925         estimate D2E/DX2                !
 ! A15   A(10,7,25)            117.4974         estimate D2E/DX2                !
 ! A16   A(9,8,11)             121.127          estimate D2E/DX2                !
 ! A17   A(9,8,25)             119.3885         estimate D2E/DX2                !
 ! A18   A(11,8,25)            119.4721         estimate D2E/DX2                !
 ! A19   A(8,9,12)             120.9586         estimate D2E/DX2                !
 ! A20   A(8,9,33)             118.5318         estimate D2E/DX2                !
 ! A21   A(12,9,33)            120.5087         estimate D2E/DX2                !
 ! A22   A(7,10,33)            124.127          estimate D2E/DX2                !
 ! A23   A(7,10,56)            117.4906         estimate D2E/DX2                !
 ! A24   A(33,10,56)           118.3821         estimate D2E/DX2                !
 ! A25   A(14,15,16)           119.6845         estimate D2E/DX2                !
 ! A26   A(14,15,18)           119.6422         estimate D2E/DX2                !
 ! A27   A(16,15,18)           120.6626         estimate D2E/DX2                !
 ! A28   A(15,16,17)           119.3941         estimate D2E/DX2                !
 ! A29   A(15,16,19)           119.928          estimate D2E/DX2                !
 ! A30   A(17,16,19)           120.6766         estimate D2E/DX2                !
 ! A31   A(16,17,29)           119.6839         estimate D2E/DX2                !
 ! A32   A(16,17,57)           120.1099         estimate D2E/DX2                !
 ! A33   A(29,17,57)           120.2059         estimate D2E/DX2                !
 ! A34   A(15,18,20)           119.9207         estimate D2E/DX2                !
 ! A35   A(15,18,58)           119.4075         estimate D2E/DX2                !
 ! A36   A(20,18,58)           120.6712         estimate D2E/DX2                !
 ! A37   A(1,21,27)            122.3135         estimate D2E/DX2                !
 ! A38   A(1,21,54)            120.1682         estimate D2E/DX2                !
 ! A39   A(27,21,54)           117.5182         estimate D2E/DX2                !
 ! A40   A(23,22,24)           121.1301         estimate D2E/DX2                !
 ! A41   A(23,22,27)           119.41           estimate D2E/DX2                !
 ! A42   A(24,22,27)           119.4562         estimate D2E/DX2                !
 ! A43   A(22,23,52)           118.6153         estimate D2E/DX2                !
 ! A44   A(22,23,53)           120.8885         estimate D2E/DX2                !
 ! A45   A(52,23,53)           120.4962         estimate D2E/DX2                !
 ! A46   A(7,25,8)             122.625          estimate D2E/DX2                !
 ! A47   A(7,25,26)            116.1818         estimate D2E/DX2                !
 ! A48   A(8,25,26)            121.183          estimate D2E/DX2                !
 ! A49   A(21,27,22)           122.5815         estimate D2E/DX2                !
 ! A50   A(21,27,28)           116.2982         estimate D2E/DX2                !
 ! A51   A(22,27,28)           121.114          estimate D2E/DX2                !
 ! A52   A(39,31,43)           101.0831         estimate D2E/DX2                !
 ! A53   A(39,31,62)           123.3174         estimate D2E/DX2                !
 ! A54   A(43,31,62)           119.133          estimate D2E/DX2                !
 ! A55   A(38,32,44)           101.5847         estimate D2E/DX2                !
 ! A56   A(38,32,63)           119.3836         estimate D2E/DX2                !
 ! A57   A(44,32,63)           119.0206         estimate D2E/DX2                !
 ! A58   A(9,33,10)            117.7228         estimate D2E/DX2                !
 ! A59   A(9,33,34)            123.3442         estimate D2E/DX2                !
 ! A60   A(10,33,34)           118.9321         estimate D2E/DX2                !
 ! A61   A(33,34,35)           120.1709         estimate D2E/DX2                !
 ! A62   A(33,34,39)           120.9022         estimate D2E/DX2                !
 ! A63   A(35,34,39)           118.9227         estimate D2E/DX2                !
 ! A64   A(34,35,36)           120.7911         estimate D2E/DX2                !
 ! A65   A(34,35,40)           119.0103         estimate D2E/DX2                !
 ! A66   A(36,35,40)           120.1848         estimate D2E/DX2                !
 ! A67   A(35,36,37)           120.2233         estimate D2E/DX2                !
 ! A68   A(35,36,41)           119.9651         estimate D2E/DX2                !
 ! A69   A(37,36,41)           119.8024         estimate D2E/DX2                !
 ! A70   A(36,37,38)           119.704          estimate D2E/DX2                !
 ! A71   A(36,37,42)           120.4999         estimate D2E/DX2                !
 ! A72   A(38,37,42)           119.7923         estimate D2E/DX2                !
 ! A73   A(32,38,37)           119.1261         estimate D2E/DX2                !
 ! A74   A(32,38,39)           120.5511         estimate D2E/DX2                !
 ! A75   A(37,38,39)           120.2634         estimate D2E/DX2                !
 ! A76   A(31,39,34)           120.0128         estimate D2E/DX2                !
 ! A77   A(31,39,38)           119.8583         estimate D2E/DX2                !
 ! A78   A(34,39,38)           120.0165         estimate D2E/DX2                !
 ! A79   A(31,43,44)           119.653          estimate D2E/DX2                !
 ! A80   A(31,43,48)           120.2352         estimate D2E/DX2                !
 ! A81   A(44,43,48)           119.988          estimate D2E/DX2                !
 ! A82   A(32,44,43)           120.7006         estimate D2E/DX2                !
 ! A83   A(32,44,45)           118.8778         estimate D2E/DX2                !
 ! A84   A(43,44,45)           120.3682         estimate D2E/DX2                !
 ! A85   A(44,45,46)           119.6573         estimate D2E/DX2                !
 ! A86   A(44,45,49)           119.8534         estimate D2E/DX2                !
 ! A87   A(46,45,49)           120.4855         estimate D2E/DX2                !
 ! A88   A(45,46,47)           120.1808         estimate D2E/DX2                !
 ! A89   A(45,46,50)           119.7653         estimate D2E/DX2                !
 ! A90   A(47,46,50)           120.0397         estimate D2E/DX2                !
 ! A91   A(46,47,48)           120.9649         estimate D2E/DX2                !
 ! A92   A(46,47,51)           120.0198         estimate D2E/DX2                !
 ! A93   A(48,47,51)           118.9946         estimate D2E/DX2                !
 ! A94   A(43,48,47)           118.7417         estimate D2E/DX2                !
 ! A95   A(43,48,52)           121.8951         estimate D2E/DX2                !
 ! A96   A(47,48,52)           119.3499         estimate D2E/DX2                !
 ! A97   A(23,52,48)           123.1888         estimate D2E/DX2                !
 ! A98   A(23,52,54)           117.5623         estimate D2E/DX2                !
 ! A99   A(48,52,54)           119.2134         estimate D2E/DX2                !
 ! A100  A(21,54,52)           124.2556         estimate D2E/DX2                !
 ! A101  A(21,54,55)           117.5087         estimate D2E/DX2                !
 ! A102  A(52,54,55)           118.2326         estimate D2E/DX2                !
 ! A103  A(17,57,58)           120.346          estimate D2E/DX2                !
 ! A104  A(17,57,60)           119.8597         estimate D2E/DX2                !
 ! A105  A(58,57,60)           119.7943         estimate D2E/DX2                !
 ! A106  A(18,58,57)           120.0796         estimate D2E/DX2                !
 ! A107  A(18,58,59)           119.7284         estimate D2E/DX2                !
 ! A108  A(57,58,59)           120.192          estimate D2E/DX2                !
 ! A109  L(2,1,7,4,-1)         182.4954         estimate D2E/DX2                !
 ! A110  L(4,1,21,2,-1)        182.7153         estimate D2E/DX2                !
 ! A111  L(6,1,61,2,-1)        174.1311         estimate D2E/DX2                !
 ! A112  L(1,2,3,20,-1)        179.1807         estimate D2E/DX2                !
 ! A113  L(1,4,5,8,-1)         179.2702         estimate D2E/DX2                !
 ! A114  L(1,6,30,10,-1)       184.0905         estimate D2E/DX2                !
 ! A115  L(14,13,62,1,-1)      176.0309         estimate D2E/DX2                !
 ! A116  L(13,14,15,1,-1)      179.0374         estimate D2E/DX2                !
 ! A117  L(13,62,31,6,-1)      194.6319         estimate D2E/DX2                !
 ! A118  L(2,1,7,4,-2)         184.0016         estimate D2E/DX2                !
 ! A119  L(4,1,21,2,-2)        176.5791         estimate D2E/DX2                !
 ! A120  L(6,1,61,2,-2)        175.0623         estimate D2E/DX2                !
 ! A121  L(1,2,3,20,-2)        180.0178         estimate D2E/DX2                !
 ! A122  L(1,4,5,8,-2)         179.8217         estimate D2E/DX2                !
 ! A123  L(1,6,30,10,-2)       177.3372         estimate D2E/DX2                !
 ! A124  L(14,13,62,1,-2)      178.9188         estimate D2E/DX2                !
 ! A125  L(13,14,15,1,-2)      180.2957         estimate D2E/DX2                !
 ! A126  L(13,62,31,6,-2)      179.6859         estimate D2E/DX2                !
 ! D1    D(4,1,7,10)           115.4668         estimate D2E/DX2                !
 ! D2    D(4,1,7,25)           -67.0483         estimate D2E/DX2                !
 ! D3    D(6,1,7,10)            25.1545         estimate D2E/DX2                !
 ! D4    D(6,1,7,25)          -157.3606         estimate D2E/DX2                !
 ! D5    D(21,1,7,10)          -67.7599         estimate D2E/DX2                !
 ! D6    D(21,1,7,25)          109.725          estimate D2E/DX2                !
 ! D7    D(61,1,7,10)         -159.4963         estimate D2E/DX2                !
 ! D8    D(61,1,7,25)           17.9886         estimate D2E/DX2                !
 ! D9    D(2,1,21,27)           59.4398         estimate D2E/DX2                !
 ! D10   D(2,1,21,54)         -120.5716         estimate D2E/DX2                !
 ! D11   D(6,1,21,27)          149.6204         estimate D2E/DX2                !
 ! D12   D(6,1,21,54)          -30.391          estimate D2E/DX2                !
 ! D13   D(7,1,21,27)         -116.7103         estimate D2E/DX2                !
 ! D14   D(7,1,21,54)           63.2782         estimate D2E/DX2                !
 ! D15   D(61,1,21,27)         -24.5052         estimate D2E/DX2                !
 ! D16   D(61,1,21,54)         155.4834         estimate D2E/DX2                !
 ! D17   D(1,7,10,33)          174.1373         estimate D2E/DX2                !
 ! D18   D(1,7,10,56)           -6.0551         estimate D2E/DX2                !
 ! D19   D(25,7,10,33)          -3.4739         estimate D2E/DX2                !
 ! D20   D(25,7,10,56)         176.3338         estimate D2E/DX2                !
 ! D21   D(1,7,25,8)          -176.6904         estimate D2E/DX2                !
 ! D22   D(1,7,25,26)            2.1562         estimate D2E/DX2                !
 ! D23   D(10,7,25,8)            0.8507         estimate D2E/DX2                !
 ! D24   D(10,7,25,26)         179.6973         estimate D2E/DX2                !
 ! D25   D(11,8,9,12)           -0.7707         estimate D2E/DX2                !
 ! D26   D(11,8,9,33)          179.5881         estimate D2E/DX2                !
 ! D27   D(25,8,9,12)          177.9412         estimate D2E/DX2                !
 ! D28   D(25,8,9,33)           -1.7001         estimate D2E/DX2                !
 ! D29   D(9,8,25,7)             1.6872         estimate D2E/DX2                !
 ! D30   D(9,8,25,26)         -177.103          estimate D2E/DX2                !
 ! D31   D(11,8,25,7)         -179.5794         estimate D2E/DX2                !
 ! D32   D(11,8,25,26)           1.6304         estimate D2E/DX2                !
 ! D33   D(8,9,33,10)           -0.6606         estimate D2E/DX2                !
 ! D34   D(8,9,33,34)          179.0052         estimate D2E/DX2                !
 ! D35   D(12,9,33,10)         179.6965         estimate D2E/DX2                !
 ! D36   D(12,9,33,34)          -0.6377         estimate D2E/DX2                !
 ! D37   D(7,10,33,9)            3.4004         estimate D2E/DX2                !
 ! D38   D(7,10,33,34)        -176.2806         estimate D2E/DX2                !
 ! D39   D(56,10,33,9)        -176.4057         estimate D2E/DX2                !
 ! D40   D(56,10,33,34)          3.9133         estimate D2E/DX2                !
 ! D41   D(16,15,31,39)         16.9588         estimate D2E/DX2                !
 ! D42   D(16,15,31,43)        158.5082         estimate D2E/DX2                !
 ! D43   D(18,15,31,39)       -161.0398         estimate D2E/DX2                !
 ! D44   D(18,15,31,43)        -19.4905         estimate D2E/DX2                !
 ! D45   D(14,15,16,17)       -178.754          estimate D2E/DX2                !
 ! D46   D(14,15,16,19)          0.8223         estimate D2E/DX2                !
 ! D47   D(18,15,16,17)          0.055          estimate D2E/DX2                !
 ! D48   D(18,15,16,19)        179.6313         estimate D2E/DX2                !
 ! D49   D(14,15,18,20)         -1.0429         estimate D2E/DX2                !
 ! D50   D(14,15,18,58)        178.6956         estimate D2E/DX2                !
 ! D51   D(16,15,18,20)       -179.8524         estimate D2E/DX2                !
 ! D52   D(16,15,18,58)         -0.1138         estimate D2E/DX2                !
 ! D53   D(15,16,17,29)        179.916          estimate D2E/DX2                !
 ! D54   D(15,16,17,57)          0.0841         estimate D2E/DX2                !
 ! D55   D(19,16,17,29)          0.3429         estimate D2E/DX2                !
 ! D56   D(19,16,17,57)       -179.4889         estimate D2E/DX2                !
 ! D57   D(16,17,57,58)         -0.1646         estimate D2E/DX2                !
 ! D58   D(16,17,57,60)        179.856          estimate D2E/DX2                !
 ! D59   D(29,17,57,58)       -179.9956         estimate D2E/DX2                !
 ! D60   D(29,17,57,60)          0.0251         estimate D2E/DX2                !
 ! D61   D(15,18,58,57)          0.0335         estimate D2E/DX2                !
 ! D62   D(15,18,58,59)       -179.974          estimate D2E/DX2                !
 ! D63   D(20,18,58,57)        179.7701         estimate D2E/DX2                !
 ! D64   D(20,18,58,59)         -0.2374         estimate D2E/DX2                !
 ! D65   D(1,21,27,22)         179.5635         estimate D2E/DX2                !
 ! D66   D(1,21,27,28)           0.4737         estimate D2E/DX2                !
 ! D67   D(54,21,27,22)         -0.4253         estimate D2E/DX2                !
 ! D68   D(54,21,27,28)       -179.5151         estimate D2E/DX2                !
 ! D69   D(1,21,54,52)        -177.5717         estimate D2E/DX2                !
 ! D70   D(1,21,54,55)           3.0888         estimate D2E/DX2                !
 ! D71   D(27,21,54,52)          2.4174         estimate D2E/DX2                !
 ! D72   D(27,21,54,55)       -176.9221         estimate D2E/DX2                !
 ! D73   D(24,22,23,52)       -179.3833         estimate D2E/DX2                !
 ! D74   D(24,22,23,53)          0.6463         estimate D2E/DX2                !
 ! D75   D(27,22,23,52)          1.3216         estimate D2E/DX2                !
 ! D76   D(27,22,23,53)       -178.6488         estimate D2E/DX2                !
 ! D77   D(23,22,27,21)         -1.4104         estimate D2E/DX2                !
 ! D78   D(23,22,27,28)        177.6365         estimate D2E/DX2                !
 ! D79   D(24,22,27,21)        179.2826         estimate D2E/DX2                !
 ! D80   D(24,22,27,28)         -1.6706         estimate D2E/DX2                !
 ! D81   D(22,23,52,48)        178.2828         estimate D2E/DX2                !
 ! D82   D(22,23,52,54)          0.4702         estimate D2E/DX2                !
 ! D83   D(53,23,52,48)         -1.7467         estimate D2E/DX2                !
 ! D84   D(53,23,52,54)       -179.5593         estimate D2E/DX2                !
 ! D85   D(43,31,39,34)       -137.7192         estimate D2E/DX2                !
 ! D86   D(43,31,39,38)         46.1348         estimate D2E/DX2                !
 ! D87   D(62,31,39,34)         -1.4642         estimate D2E/DX2                !
 ! D88   D(62,31,39,38)       -177.6101         estimate D2E/DX2                !
 ! D89   D(39,31,43,44)        -46.4801         estimate D2E/DX2                !
 ! D90   D(39,31,43,48)        137.5649         estimate D2E/DX2                !
 ! D91   D(62,31,43,44)        174.9332         estimate D2E/DX2                !
 ! D92   D(62,31,43,48)         -1.0218         estimate D2E/DX2                !
 ! D93   D(44,32,38,37)        139.4507         estimate D2E/DX2                !
 ! D94   D(44,32,38,39)        -43.346          estimate D2E/DX2                !
 ! D95   D(63,32,38,37)          6.3129         estimate D2E/DX2                !
 ! D96   D(63,32,38,39)       -176.4837         estimate D2E/DX2                !
 ! D97   D(38,32,44,43)         42.9656         estimate D2E/DX2                !
 ! D98   D(38,32,44,45)       -139.6808         estimate D2E/DX2                !
 ! D99   D(63,32,44,43)        176.319          estimate D2E/DX2                !
 ! D100  D(63,32,44,45)         -6.3273         estimate D2E/DX2                !
 ! D101  D(9,33,34,35)          69.9757         estimate D2E/DX2                !
 ! D102  D(9,33,34,39)        -110.7764         estimate D2E/DX2                !
 ! D103  D(10,33,34,35)       -110.3623         estimate D2E/DX2                !
 ! D104  D(10,33,34,39)         68.8855         estimate D2E/DX2                !
 ! D105  D(33,34,35,36)        176.9961         estimate D2E/DX2                !
 ! D106  D(33,34,35,40)         -1.6546         estimate D2E/DX2                !
 ! D107  D(39,34,35,36)         -2.2665         estimate D2E/DX2                !
 ! D108  D(39,34,35,40)        179.0828         estimate D2E/DX2                !
 ! D109  D(33,34,39,31)          7.0837         estimate D2E/DX2                !
 ! D110  D(33,34,39,38)       -176.7765         estimate D2E/DX2                !
 ! D111  D(35,34,39,31)       -173.6592         estimate D2E/DX2                !
 ! D112  D(35,34,39,38)          2.4805         estimate D2E/DX2                !
 ! D113  D(34,35,36,37)         -0.108          estimate D2E/DX2                !
 ! D114  D(34,35,36,41)       -179.0012         estimate D2E/DX2                !
 ! D115  D(40,35,36,37)        178.5269         estimate D2E/DX2                !
 ! D116  D(40,35,36,41)         -0.3663         estimate D2E/DX2                !
 ! D117  D(35,36,37,38)          2.2799         estimate D2E/DX2                !
 ! D118  D(35,36,37,42)       -178.4279         estimate D2E/DX2                !
 ! D119  D(41,36,37,38)       -178.8252         estimate D2E/DX2                !
 ! D120  D(41,36,37,42)          0.4671         estimate D2E/DX2                !
 ! D121  D(36,37,38,32)        175.1639         estimate D2E/DX2                !
 ! D122  D(36,37,38,39)         -2.0477         estimate D2E/DX2                !
 ! D123  D(42,37,38,32)         -4.1334         estimate D2E/DX2                !
 ! D124  D(42,37,38,39)        178.655          estimate D2E/DX2                !
 ! D125  D(32,38,39,31)         -1.371          estimate D2E/DX2                !
 ! D126  D(32,38,39,34)       -177.5168         estimate D2E/DX2                !
 ! D127  D(37,38,39,31)        175.8005         estimate D2E/DX2                !
 ! D128  D(37,38,39,34)         -0.3453         estimate D2E/DX2                !
 ! D129  D(31,43,44,32)          2.1046         estimate D2E/DX2                !
 ! D130  D(31,43,44,45)       -175.2095         estimate D2E/DX2                !
 ! D131  D(48,43,44,32)        178.0698         estimate D2E/DX2                !
 ! D132  D(48,43,44,45)          0.7556         estimate D2E/DX2                !
 ! D133  D(31,43,48,47)        172.9866         estimate D2E/DX2                !
 ! D134  D(31,43,48,52)         -8.3484         estimate D2E/DX2                !
 ! D135  D(44,43,48,47)         -2.9547         estimate D2E/DX2                !
 ! D136  D(44,43,48,52)        175.7102         estimate D2E/DX2                !
 ! D137  D(32,44,45,46)       -175.3347         estimate D2E/DX2                !
 ! D138  D(32,44,45,49)          3.9605         estimate D2E/DX2                !
 ! D139  D(43,44,45,46)          2.028          estimate D2E/DX2                !
 ! D140  D(43,44,45,49)       -178.6768         estimate D2E/DX2                !
 ! D141  D(44,45,46,47)         -2.5725         estimate D2E/DX2                !
 ! D142  D(44,45,46,50)        178.7974         estimate D2E/DX2                !
 ! D143  D(49,45,46,47)        178.1368         estimate D2E/DX2                !
 ! D144  D(49,45,46,50)         -0.4933         estimate D2E/DX2                !
 ! D145  D(45,46,47,48)          0.3262         estimate D2E/DX2                !
 ! D146  D(45,46,47,51)       -178.0042         estimate D2E/DX2                !
 ! D147  D(50,46,47,48)        178.9525         estimate D2E/DX2                !
 ! D148  D(50,46,47,51)          0.6221         estimate D2E/DX2                !
 ! D149  D(46,47,48,43)          2.4331         estimate D2E/DX2                !
 ! D150  D(46,47,48,52)       -176.2664         estimate D2E/DX2                !
 ! D151  D(51,47,48,43)       -179.2197         estimate D2E/DX2                !
 ! D152  D(51,47,48,52)          2.0808         estimate D2E/DX2                !
 ! D153  D(43,48,52,23)        119.4685         estimate D2E/DX2                !
 ! D154  D(43,48,52,54)        -62.7532         estimate D2E/DX2                !
 ! D155  D(47,48,52,23)        -61.8745         estimate D2E/DX2                !
 ! D156  D(47,48,52,54)        115.9038         estimate D2E/DX2                !
 ! D157  D(23,52,54,21)         -2.4509         estimate D2E/DX2                !
 ! D158  D(23,52,54,55)        176.8841         estimate D2E/DX2                !
 ! D159  D(48,52,54,21)        179.6464         estimate D2E/DX2                !
 ! D160  D(48,52,54,55)         -1.0185         estimate D2E/DX2                !
 ! D161  D(17,57,58,18)          0.105          estimate D2E/DX2                !
 ! D162  D(17,57,58,59)       -179.8874         estimate D2E/DX2                !
 ! D163  D(60,57,58,18)       -179.9156         estimate D2E/DX2                !
 ! D164  D(60,57,58,59)          0.092          estimate D2E/DX2                !
 --------------------------------------------------------------------------------
 Trust Radius=3.00D-01 FncErr=1.00D-07 GrdErr=1.00D-06 EigMax=2.50D+02 EigMin=1.00D-04
 Number of steps in this run=    369 maximum allowed number of steps=    378.
 GradGradGradGradGradGradGradGradGradGradGradGradGradGradGradGradGradGrad

 Stoichiometry    C34H21BrMnN3O3
 Framework group  C1[X(C34H21BrMnN3O3)]
 Deg. of freedom   183
 Full point group                 C1      NOp   1
 Largest Abelian subgroup         C1      NOp   1
 Largest concise Abelian subgroup C1      NOp   1
                         Standard orientation:                         
 ---------------------------------------------------------------------
 Center     Atomic      Atomic             Coordinates (Angstroms)
 Number     Number       Type             X           Y           Z
 ---------------------------------------------------------------------
      1         25           0       -1.188006   -1.649864   -1.385481
      2          6           0       -1.950550   -1.535027   -3.025457
      3          8           0       -2.438628   -1.448026   -4.057146
      4          6           0       -1.840103   -3.319475   -1.103130
      5          8           0       -2.252164   -4.369761   -0.910355
      6          6           0        0.296829   -2.342510   -2.118089
      7          7           0       -0.365846   -1.641150    0.625870
      8          6           0       -0.615971   -1.563222    3.007352
      9          6           0        0.761153   -1.455982    3.178889
     10          6           0        0.957359   -1.589625    0.803515
     11          1           0       -1.292346   -1.569865    3.863801
     12          1           0        1.197947   -1.363163    4.176492
     13          7           0       -0.741869    1.779187    1.598587
     14          6           0       -1.874590    1.972286    1.736727
     15          6           0       -3.288301    2.199246    1.887662
     16          6           0       -4.017370    1.442700    2.814303
     17          6           0       -5.387895    1.648852    2.936707
     18          6           0       -3.925500    3.157526    1.088459
     19          1           0       -3.509638    0.694867    3.426774
     20          1           0       -3.345793    3.738814    0.368306
     21          7           0       -0.469556    0.396924   -1.577498
     22          6           0       -0.849620    2.743772   -1.870228
     23          6           0        0.513478    3.007883   -1.769367
     24          1           0       -1.570286    3.548521   -2.026154
     25          6           0       -1.139092   -1.636309    1.723024
     26          1           0       -2.216928   -1.673838    1.552916
     27          6           0       -1.301026    1.435457   -1.755956
     28          1           0       -2.367020    1.201075   -1.792446
     29          1           0       -5.961332    1.060502    3.656886
     30          8           0        1.191086   -2.841134   -2.642253
     31          6           0        2.742635    1.235342    1.128312
     32          6           0        5.927233    1.382114    1.100168
     33          6           0        1.575588   -1.461725    2.047404
     34          6           0        3.060876   -1.331463    2.105298
     35          6           0        3.838229   -2.373587    2.620235
     36          6           0        5.228859   -2.291645    2.623310
     37          6           0        5.865586   -1.165755    2.108784
     38          6           0        5.103283   -0.096555    1.632393
     39          6           0        3.704148   -0.171920    1.631514
     40          1           0        3.339617   -3.267962    3.002289
     41          1           0        5.823426   -3.120654    3.013980
     42          1           0        6.956597   -1.107635    2.085521
     43          6           0        3.596949    1.720891   -0.353017
     44          6           0        4.996137    1.806653   -0.350231
     45          6           0        5.676679    2.281895   -1.473516
     46          6           0        4.956583    2.711360   -2.584358
     47          6           0        3.567204    2.617763   -2.597018
     48          6           0        2.870340    2.100346   -1.499186
     49          1           0        6.768654    2.324875   -1.470158
     50          1           0        5.486376    3.101808   -3.456340
     51          1           0        3.006466    2.925419   -3.483340
     52          6           0        1.389126    1.938360   -1.583260
     53          1           0        0.893144    4.030958   -1.833740
     54          6           0        0.839273    0.657167   -1.519195
     55          1           0        1.517485   -0.190881   -1.425900
     56          1           0        1.587455   -1.655318   -0.084293
     57          6           0       -6.026709    2.600548    2.140248
     58          6           0       -5.297036    3.353695    1.219244
     59          1           0       -5.799334    4.099273    0.598368
     60          1           0       -7.103955    2.757486    2.238134
     61         35           0       -3.518144   -0.842457   -0.548832
     62          1           0        1.737135    1.250416    1.140902
     63          1           0        7.003354    1.400220    1.054224
 ---------------------------------------------------------------------
 Rotational constants (GHZ):           0.1022873           0.0544157           0.0527823
 General basis read from cards:  (5D, 7F)
 There are   802 symmetry adapted cartesian basis functions of A   symmetry.
 There are   751 symmetry adapted basis functions of A   symmetry.
   751 basis functions,  1339 primitive gaussians,   802 cartesian basis functions
   165 alpha electrons      165 beta electrons
       nuclear repulsion energy      6102.3986315216 Hartrees.
 NAtoms=   63 NActive=   63 NUniq=   63 SFac= 1.00D+00 NAtFMM=   60 NAOKFM=T Big=T
 Integral buffers will be    131072 words long.
 Raffenetti 2 integral format.
 Two-electron integral symmetry is turned on.
 Nuclear repulsion after empirical dispersion term =     6102.3322036539 Hartrees.
 ------------------------------------------------------------------------------
 Polarizable Continuum Model (PCM)
 =================================
 Model                : PCM.
 Atomic radii         : UFF (Universal Force Field).
 Polarization charges : Total charges.
 Charge compensation  : None.
 Solution method      : On-the-fly selection.
 Cavity type          : Scaled VdW (van der Waals Surface) (Alpha=1.100).
 Cavity algorithm     : GePol (No added spheres)
                        Default sphere list used, NSphG=   63.
                        Lebedev-Laikov grids with approx.  5.0 points / Ang**2.
                        Smoothing algorithm: York/Karplus (Gamma=1.0000).
                        Polarization charges: spherical gaussians, with
                                              point-specific exponents (IZeta= 3).
                        Self-potential: point-specific (ISelfS= 7).
                        Self-field    : sphere-specific E.n sum rule (ISelfD= 2).
 1st derivatives      : Analytical E(r).r(x)/FMM algorithm (CHGder, D1EAlg=3).
                        Cavity 1st derivative terms included.
 Solvent              : TetraHydroFuran, Eps=   7.425700 Eps(inf)=   1.974025
 ------------------------------------------------------------------------------
 One-electron integrals computed using PRISM.
 PrsmSu:  requested number of processors reduced to:  11 ShMem   1 Linda.
 NBasis=   751 RedAO= T EigKep=  2.46D-04  NBF=   751
 NBsUse=   751 1.00D-06 EigRej= -1.00D+00 NBFU=   751
 ExpMin= 3.93D-02 ExpMax= 2.77D+05 ExpMxC= 1.70D+04 IAcc=3 IRadAn=         5 AccDes= 0.00D+00
 Harris functional with IExCor= 4639 and IRadAn=       5 diagonalized for initial guess.
 HarFok:  IExCor= 4639 AccDes= 0.00D+00 IRadAn=         5 IDoV= 1 UseB2=F ITyADJ=14
 ICtDFT=  3500011 ScaDFX=  1.000000  1.000000  1.000000  1.000000
 FoFCou: FMM=F IPFlag=           0 FMFlag=      100000 FMFlg1=        2001
         NFxFlg=           0 DoJE=T BraDBF=F KetDBF=T FulRan=T
         wScrn=  0.000000 ICntrl=       500 IOpCl=  0 I1Cent=   200000004 NGrid=           0
         NMat0=    1 NMatS0=      1 NMatT0=    0 NMatD0=    1 NMtDS0=    0 NMtDT0=    0
 Petite list used in FoFCou.
 Requested convergence on RMS density matrix=1.00D-08 within 128 cycles.
 Requested convergence on MAX density matrix=1.00D-06.
 Requested convergence on             energy=1.00D-06.
 No special actions if energy rises.
 CoulSu:  requested number of processors reduced to:   9 ShMem   1 Linda.
 Inv3:  Mode=1 IEnd=    69408300.
 Iteration    1 A*A^-1 deviation from unit magnitude is 2.13D-14 for   4383.
 Iteration    1 A*A^-1 deviation from orthogonality  is 5.33D-14 for   4383   2520.
 Iteration    1 A^-1*A deviation from unit magnitude is 1.78D-14 for    350.
 Iteration    1 A^-1*A deviation from orthogonality  is 2.49D-14 for   2520    350.
 CoulSu:  requested number of processors reduced to:   9 ShMem   1 Linda.
 CoulSu:  requested number of processors reduced to:   9 ShMem   1 Linda.
 Error on total polarization charges =  0.01462
 SCF Done:  E(RwB97XD) =  -5421.17883901     A.U. after   20 cycles
            NFock= 20  Conv=0.51D-08     -V/T= 2.0043

 **********************************************************************

            Population analysis using the SCF density.

 **********************************************************************

 Orbital symmetries:
       Occupied  (A) (A) (A) (A) (A) (A) (A) (A) (A) (A) (A) (A)
                 (A) (A) (A) (A) (A) (A) (A) (A) (A) (A) (A) (A)
                 (A) (A) (A) (A) (A) (A) (A) (A) (A) (A) (A) (A)
                 (A) (A) (A) (A) (A) (A) (A) (A) (A) (A) (A) (A)
                 (A) (A) (A) (A) (A) (A) (A) (A) (A) (A) (A) (A)
                 (A) (A) (A) (A) (A) (A) (A) (A) (A) (A) (A) (A)
                 (A) (A) (A) (A) (A) (A) (A) (A) (A) (A) (A) (A)
                 (A) (A) (A) (A) (A) (A) (A) (A) (A) (A) (A) (A)
                 (A) (A) (A) (A) (A) (A) (A) (A) (A) (A) (A) (A)
                 (A) (A) (A) (A) (A) (A) (A) (A) (A) (A) (A) (A)
                 (A) (A) (A) (A) (A) (A) (A) (A) (A) (A) (A) (A)
                 (A) (A) (A) (A) (A) (A) (A) (A) (A) (A) (A) (A)
                 (A) (A) (A) (A) (A) (A) (A) (A) (A) (A) (A) (A)
                 (A) (A) (A) (A) (A) (A) (A) (A) (A)
       Virtual   (A) (A) (A) (A) (A) (A) (A) (A) (A) (A) (A) (A)
                 (A) (A) (A) (A) (A) (A) (A) (A) (A) (A) (A) (A)
                 (A) (A) (A) (A) (A) (A) (A) (A) (A) (A) (A) (A)
                 (A) (A) (A) (A) (A) (A) (A) (A) (A) (A) (A) (A)
                 (A) (A) (A) (A) (A) (A) (A) (A) (A) (A) (A) (A)
                 (A) (A) (A) (A) (A) (A) (A) (A) (A) (A) (A) (A)
                 (A) (A) (A) (A) (A) (A) (A) (A) (A) (A) (A) (A)
                 (A) (A) (A) (A) (A) (A) (A) (A) (A) (A) (A) (A)
                 (A) (A) (A) (A) (A) (A) (A) (A) (A) (A) (A) (A)
                 (A) (A) (A) (A) (A) (A) (A) (A) (A) (A) (A) (A)
                 (A) (A) (A) (A) (A) (A) (A) (A) (A) (A) (A) (A)
                 (A) (A) (A) (A) (A) (A) (A) (A) (A) (A) (A) (A)
                 (A) (A) (A) (A) (A) (A) (A) (A) (A) (A) (A) (A)
                 (A) (A) (A) (A) (A) (A) (A) (A) (A) (A) (A) (A)
                 (A) (A) (A) (A) (A) (A) (A) (A) (A) (A) (A) (A)
                 (A) (A) (A) (A) (A) (A) (A) (A) (A) (A) (A) (A)
                 (A) (A) (A) (A) (A) (A) (A) (A) (A) (A) (A) (A)
                 (A) (A) (A) (A) (A) (A) (A) (A) (A) (A) (A) (A)
                 (A) (A) (A) (A) (A) (A) (A) (A) (A) (A) (A) (A)
                 (A) (A) (A) (A) (A) (A) (A) (A) (A) (A) (A) (A)
                 (A) (A) (A) (A) (A) (A) (A) (A) (A) (A) (A) (A)
                 (A) (A) (A) (A) (A) (A) (A) (A) (A) (A) (A) (A)
                 (A) (A) (A) (A) (A) (A) (A) (A) (A) (A) (A) (A)
                 (A) (A) (A) (A) (A) (A) (A) (A) (A) (A) (A) (A)
                 (A) (A) (A) (A) (A) (A) (A) (A) (A) (A) (A) (A)
                 (A) (A) (A) (A) (A) (A) (A) (A) (A) (A) (A) (A)
                 (A) (A) (A) (A) (A) (A) (A) (A) (A) (A) (A) (A)
                 (A) (A) (A) (A) (A) (A) (A) (A) (A) (A) (A) (A)
                 (A) (A) (A) (A) (A) (A) (A) (A) (A) (A) (A) (A)
                 (A) (A) (A) (A) (A) (A) (A) (A) (A) (A) (A) (A)
                 (A) (A) (A) (A) (A) (A) (A) (A) (A) (A) (A) (A)
                 (A) (A) (A) (A) (A) (A) (A) (A) (A) (A) (A) (A)
                 (A) (A) (A) (A) (A) (A) (A) (A) (A) (A) (A) (A)
                 (A) (A) (A) (A) (A) (A) (A) (A) (A) (A) (A) (A)
                 (A) (A) (A) (A) (A) (A) (A) (A) (A) (A) (A) (A)
                 (A) (A) (A) (A) (A) (A) (A) (A) (A) (A) (A) (A)
                 (A) (A) (A) (A) (A) (A) (A) (A) (A) (A) (A) (A)
                 (A) (A) (A) (A) (A) (A) (A) (A) (A) (A) (A) (A)
                 (A) (A) (A) (A) (A) (A) (A) (A) (A) (A) (A) (A)
                 (A) (A) (A) (A) (A) (A) (A) (A) (A) (A) (A) (A)
                 (A) (A) (A) (A) (A) (A) (A) (A) (A) (A) (A) (A)
                 (A) (A) (A) (A) (A) (A) (A) (A) (A) (A) (A) (A)
                 (A) (A) (A) (A) (A) (A) (A) (A) (A) (A) (A) (A)
                 (A) (A) (A) (A) (A) (A) (A) (A) (A) (A) (A) (A)
                 (A) (A) (A) (A) (A) (A) (A) (A) (A) (A) (A) (A)
                 (A) (A) (A) (A) (A) (A) (A) (A) (A) (A) (A) (A)
                 (A) (A) (A) (A) (A) (A) (A) (A) (A) (A) (A) (A)
                 (A) (A) (A) (A) (A) (A) (A) (A) (A) (A) (A) (A)
                 (A) (A) (A) (A) (A) (A) (A) (A) (A) (A)
 The electronic state is 1-A.
 Alpha  occ. eigenvalues -- -482.99507-235.69510 -62.57494 -56.38130 -56.38021
 Alpha  occ. eigenvalues --  -56.38011 -27.46454 -23.52230 -23.52084 -23.51980
 Alpha  occ. eigenvalues --  -19.33432 -19.33397 -19.33178 -14.49604 -14.49560
 Alpha  occ. eigenvalues --  -14.45692 -10.41130 -10.41104 -10.40806 -10.36919
 Alpha  occ. eigenvalues --  -10.36690 -10.36100 -10.36030 -10.35537 -10.35366
 Alpha  occ. eigenvalues --  -10.35356 -10.35350 -10.35323 -10.35135 -10.35093
 Alpha  occ. eigenvalues --  -10.35091 -10.33791 -10.33777 -10.33734 -10.33732
 Alpha  occ. eigenvalues --  -10.33326 -10.33308 -10.32940 -10.32913 -10.32560
 Alpha  occ. eigenvalues --  -10.32554 -10.32243 -10.32082 -10.32055 -10.32011
 Alpha  occ. eigenvalues --  -10.31986 -10.31928 -10.31890 -10.31809 -10.31782
 Alpha  occ. eigenvalues --   -8.74241  -6.56180  -6.55801  -6.55761  -3.25645
 Alpha  occ. eigenvalues --   -2.66642  -2.66548  -2.66516  -2.66215  -2.66212
 Alpha  occ. eigenvalues --   -2.11108  -2.10795  -2.10669  -1.22391  -1.22319
 Alpha  occ. eigenvalues --   -1.21971  -1.07426  -1.07087  -1.01165  -0.98127
 Alpha  occ. eigenvalues --   -0.97572  -0.97381  -0.92889  -0.92638  -0.89299
 Alpha  occ. eigenvalues --   -0.88905  -0.87641  -0.87120  -0.86018  -0.84830
 Alpha  occ. eigenvalues --   -0.84553  -0.84208  -0.79364  -0.76945  -0.75321
 Alpha  occ. eigenvalues --   -0.74961  -0.74410  -0.74203  -0.74169  -0.73645
 Alpha  occ. eigenvalues --   -0.71620  -0.69742  -0.69503  -0.68641  -0.67161
 Alpha  occ. eigenvalues --   -0.66108  -0.65313  -0.64370  -0.64355  -0.63831
 Alpha  occ. eigenvalues --   -0.63178  -0.60897  -0.60372  -0.59848  -0.59741
 Alpha  occ. eigenvalues --   -0.58721  -0.57412  -0.56840  -0.56820  -0.56515
 Alpha  occ. eigenvalues --   -0.56234  -0.55985  -0.55662  -0.55588  -0.55345
 Alpha  occ. eigenvalues --   -0.54526  -0.54332  -0.53852  -0.53487  -0.53167
 Alpha  occ. eigenvalues --   -0.53078  -0.53005  -0.52612  -0.51613  -0.51369
 Alpha  occ. eigenvalues --   -0.51302  -0.50852  -0.50471  -0.50398  -0.50299
 Alpha  occ. eigenvalues --   -0.50283  -0.50020  -0.48891  -0.48572  -0.47850
 Alpha  occ. eigenvalues --   -0.47309  -0.47059  -0.46453  -0.45632  -0.45498
 Alpha  occ. eigenvalues --   -0.45097  -0.44370  -0.44090  -0.42818  -0.42411
 Alpha  occ. eigenvalues --   -0.41660  -0.40467  -0.39762  -0.39109  -0.38612
 Alpha  occ. eigenvalues --   -0.38135  -0.36817  -0.36204  -0.35975  -0.35492
 Alpha  occ. eigenvalues --   -0.35251  -0.34595  -0.34099  -0.33644  -0.33349
 Alpha  occ. eigenvalues --   -0.33162  -0.31238  -0.30393  -0.30109  -0.25733
 Alpha virt. eigenvalues --   -0.08834   0.00947   0.01071   0.01312   0.02012
 Alpha virt. eigenvalues --    0.03067   0.03886   0.04277   0.04939   0.05016
 Alpha virt. eigenvalues --    0.05290   0.05824   0.06119   0.06374   0.07833
 Alpha virt. eigenvalues --    0.08217   0.09556   0.09834   0.10081   0.10876
 Alpha virt. eigenvalues --    0.11316   0.12475   0.12591   0.12718   0.12923
 Alpha virt. eigenvalues --    0.13457   0.14967   0.15499   0.15602   0.15741
 Alpha virt. eigenvalues --    0.16052   0.16881   0.17208   0.17994   0.18364
 Alpha virt. eigenvalues --    0.18583   0.18665   0.18857   0.19407   0.20156
 Alpha virt. eigenvalues --    0.20558   0.20820   0.21145   0.21532   0.22281
 Alpha virt. eigenvalues --    0.22600   0.23386   0.23483   0.23873   0.24202
 Alpha virt. eigenvalues --    0.24538   0.24871   0.25475   0.25796   0.26047
 Alpha virt. eigenvalues --    0.27637   0.27842   0.27929   0.28524   0.28852
 Alpha virt. eigenvalues --    0.29637   0.31369   0.31673   0.31840   0.33203
 Alpha virt. eigenvalues --    0.33323   0.33462   0.33723   0.34042   0.34232
 Alpha virt. eigenvalues --    0.34379   0.35076   0.35372   0.35573   0.36409
 Alpha virt. eigenvalues --    0.36589   0.37144   0.37161   0.37220   0.38011
 Alpha virt. eigenvalues --    0.38255   0.38527   0.38886   0.39191   0.39719
 Alpha virt. eigenvalues --    0.40433   0.40610   0.41160   0.41600   0.42963
 Alpha virt. eigenvalues --    0.43082   0.43372   0.43618   0.44356   0.44503
 Alpha virt. eigenvalues --    0.45029   0.45848   0.46150   0.46802   0.47038
 Alpha virt. eigenvalues --    0.47832   0.48435   0.48587   0.49289   0.49645
 Alpha virt. eigenvalues --    0.49691   0.49916   0.50091   0.50690   0.50986
 Alpha virt. eigenvalues --    0.51335   0.52366   0.52596   0.52671   0.53239
 Alpha virt. eigenvalues --    0.53683   0.53705   0.54065   0.54380   0.54917
 Alpha virt. eigenvalues --    0.55254   0.55489   0.55660   0.56162   0.56387
 Alpha virt. eigenvalues --    0.56669   0.57100   0.57239   0.57679   0.58334
 Alpha virt. eigenvalues --    0.58644   0.58829   0.59347   0.59623   0.59877
 Alpha virt. eigenvalues --    0.60389   0.61394   0.61937   0.62445   0.62963
 Alpha virt. eigenvalues --    0.63080   0.63409   0.63773   0.64286   0.64974
 Alpha virt. eigenvalues --    0.65003   0.65452   0.65736   0.66617   0.66780
 Alpha virt. eigenvalues --    0.67456   0.67675   0.67815   0.68090   0.68759
 Alpha virt. eigenvalues --    0.69773   0.69832   0.70220   0.70562   0.70655
 Alpha virt. eigenvalues --    0.71137   0.71618   0.72005   0.72408   0.72475
 Alpha virt. eigenvalues --    0.73018   0.73161   0.73425   0.73516   0.74054
 Alpha virt. eigenvalues --    0.74103   0.74680   0.74743   0.74948   0.75154
 Alpha virt. eigenvalues --    0.75657   0.75987   0.76228   0.76329   0.76673
 Alpha virt. eigenvalues --    0.77095   0.77345   0.78048   0.78368   0.78596
 Alpha virt. eigenvalues --    0.78777   0.78847   0.78994   0.79285   0.79486
 Alpha virt. eigenvalues --    0.79651   0.80023   0.80336   0.81558   0.81862
 Alpha virt. eigenvalues --    0.82186   0.82502   0.82568   0.82928   0.83305
 Alpha virt. eigenvalues --    0.83576   0.84041   0.84280   0.84538   0.84909
 Alpha virt. eigenvalues --    0.85119   0.85664   0.86182   0.86247   0.86427
 Alpha virt. eigenvalues --    0.87047   0.87354   0.87652   0.88023   0.88681
 Alpha virt. eigenvalues --    0.88799   0.89058   0.89313   0.89497   0.89705
 Alpha virt. eigenvalues --    0.90077   0.91276   0.91584   0.91816   0.92772
 Alpha virt. eigenvalues --    0.93094   0.93525   0.93877   0.94604   0.94741
 Alpha virt. eigenvalues --    0.95877   0.96189   0.96371   0.96955   0.97663
 Alpha virt. eigenvalues --    0.98400   0.99498   1.00015   1.00225   1.01487
 Alpha virt. eigenvalues --    1.01606   1.02609   1.03180   1.03682   1.04321
 Alpha virt. eigenvalues --    1.04626   1.06696   1.07143   1.07614   1.08480
 Alpha virt. eigenvalues --    1.08992   1.09592   1.11037   1.11490   1.11513
 Alpha virt. eigenvalues --    1.12689   1.13893   1.14625   1.14696   1.15882
 Alpha virt. eigenvalues --    1.16337   1.16628   1.17035   1.17439   1.18697
 Alpha virt. eigenvalues --    1.18861   1.19815   1.20584   1.23002   1.23239
 Alpha virt. eigenvalues --    1.23840   1.24518   1.25950   1.26196   1.26309
 Alpha virt. eigenvalues --    1.27216   1.27911   1.28577   1.29148   1.29670
 Alpha virt. eigenvalues --    1.30188   1.30422   1.30699   1.31170   1.31321
 Alpha virt. eigenvalues --    1.31794   1.32170   1.32553   1.34095   1.34434
 Alpha virt. eigenvalues --    1.34923   1.35155   1.35373   1.35522   1.36058
 Alpha virt. eigenvalues --    1.36262   1.36796   1.36839   1.37630   1.38017
 Alpha virt. eigenvalues --    1.38341   1.38673   1.39269   1.39989   1.40407
 Alpha virt. eigenvalues --    1.42624   1.43147   1.43600   1.43845   1.44990
 Alpha virt. eigenvalues --    1.46056   1.47845   1.50023   1.50919   1.52488
 Alpha virt. eigenvalues --    1.53030   1.54121   1.54933   1.56564   1.57761
 Alpha virt. eigenvalues --    1.58136   1.58549   1.60461   1.61977   1.62453
 Alpha virt. eigenvalues --    1.63006   1.64376   1.67545   1.67646   1.68216
 Alpha virt. eigenvalues --    1.69335   1.69943   1.70170   1.70659   1.71427
 Alpha virt. eigenvalues --    1.71808   1.71934   1.73453   1.73533   1.74108
 Alpha virt. eigenvalues --    1.74562   1.75269   1.75728   1.75898   1.76615
 Alpha virt. eigenvalues --    1.77049   1.77399   1.77476   1.77842   1.78283
 Alpha virt. eigenvalues --    1.78796   1.78921   1.79250   1.79852   1.79937
 Alpha virt. eigenvalues --    1.80329   1.80604   1.80838   1.81067   1.81522
 Alpha virt. eigenvalues --    1.81934   1.82537   1.83001   1.83087   1.83189
 Alpha virt. eigenvalues --    1.83434   1.83639   1.84477   1.84771   1.84985
 Alpha virt. eigenvalues --    1.85353   1.85598   1.85850   1.87118   1.87399
 Alpha virt. eigenvalues --    1.87775   1.88188   1.88553   1.89502   1.91020
 Alpha virt. eigenvalues --    1.91100   1.91548   1.91742   1.92626   1.93229
 Alpha virt. eigenvalues --    1.93908   1.95006   1.95788   1.96092   1.96792
 Alpha virt. eigenvalues --    1.97519   1.97729   1.98374   1.99193   1.99410
 Alpha virt. eigenvalues --    2.00157   2.00530   2.01100   2.01828   2.02180
 Alpha virt. eigenvalues --    2.02435   2.02765   2.02934   2.03149   2.03420
 Alpha virt. eigenvalues --    2.04624   2.04712   2.04917   2.05100   2.05574
 Alpha virt. eigenvalues --    2.06056   2.06798   2.07609   2.08182   2.08520
 Alpha virt. eigenvalues --    2.09203   2.09689   2.12288   2.12419   2.13074
 Alpha virt. eigenvalues --    2.13390   2.13546   2.15507   2.16402   2.16944
 Alpha virt. eigenvalues --    2.17108   2.17756   2.18476   2.18589   2.20752
 Alpha virt. eigenvalues --    2.20996   2.21198   2.21978   2.22392   2.22625
 Alpha virt. eigenvalues --    2.23006   2.23301   2.23425   2.24950   2.25530
 Alpha virt. eigenvalues --    2.25779   2.27020   2.29585   2.30010   2.31165
 Alpha virt. eigenvalues --    2.31711   2.31977   2.32251   2.32649   2.33354
 Alpha virt. eigenvalues --    2.34221   2.35532   2.35750   2.35932   2.36065
 Alpha virt. eigenvalues --    2.36355   2.36512   2.37338   2.37749   2.37987
 Alpha virt. eigenvalues --    2.38937   2.39040   2.39280   2.39565   2.40718
 Alpha virt. eigenvalues --    2.41263   2.41880   2.42060   2.42768   2.43330
 Alpha virt. eigenvalues --    2.44082   2.44437   2.47569   2.48374   2.49455
 Alpha virt. eigenvalues --    2.50361   2.50899   2.53021   2.54314   2.54499
 Alpha virt. eigenvalues --    2.55043   2.58032   2.58794   2.59558   2.60529
 Alpha virt. eigenvalues --    2.60972   2.61557   2.65173   2.66952   2.67854
 Alpha virt. eigenvalues --    2.68203   2.68461   2.69607   2.70384   2.70452
 Alpha virt. eigenvalues --    2.70536   2.70709   2.70746   2.70832   2.71417
 Alpha virt. eigenvalues --    2.71454   2.71472   2.71992   2.72887   2.73656
 Alpha virt. eigenvalues --    2.77014   2.77459   2.77830   2.79154   2.80171
 Alpha virt. eigenvalues --    2.80323   2.80701   2.81183   2.81253   2.82220
 Alpha virt. eigenvalues --    2.83758   2.86419   2.86980   2.87327   2.88359
 Alpha virt. eigenvalues --    2.89926   2.90912   2.92689   2.92807   2.93586
 Alpha virt. eigenvalues --    2.95211   2.96408   2.99737   3.00261   3.00626
 Alpha virt. eigenvalues --    3.01098   3.03676   3.05274   3.05502   3.06683
 Alpha virt. eigenvalues --    3.07021   3.08005   3.08886   3.09708   3.10528
 Alpha virt. eigenvalues --    3.10888   3.15727   3.16620   3.17513   3.20224
 Alpha virt. eigenvalues --    3.20635   3.21629   3.22204   3.22298   3.23601
 Alpha virt. eigenvalues --    3.24573   3.24798   3.27428   3.30397   3.30927
 Alpha virt. eigenvalues --    3.33674   3.39205   3.39792   3.41308   3.44786
 Alpha virt. eigenvalues --    3.45420   3.47767   3.51109   3.54169   3.55801
 Alpha virt. eigenvalues --    3.58835   3.60003   3.61783   3.62557   3.63882
 Alpha virt. eigenvalues --    3.64733   3.64943   3.68638   3.70919   3.71087
 Alpha virt. eigenvalues --    3.76697   3.77482   3.78582   3.81307   3.82705
 Alpha virt. eigenvalues --    3.83930   3.93629   3.99473   4.03616   4.08342
 Alpha virt. eigenvalues --    4.11007
          Condensed to atoms (all electrons):
 Mulliken charges:
               1
     1  Mn  -0.774707
     2  C    0.377922
     3  O   -0.067342
     4  C    0.376660
     5  O   -0.067035
     6  C    0.305405
     7  N   -0.213052
     8  C   -0.038410
     9  C    0.065519
    10  C    0.131387
    11  H    0.056519
    12  H    0.050459
    13  N    0.026942
    14  C   -0.077175
    15  C   -0.129432
    16  C    0.033948
    17  C   -0.026853
    18  C    0.024134
    19  H    0.042163
    20  H    0.040136
    21  N   -0.210203
    22  C   -0.040016
    23  C    0.054119
    24  H    0.057496
    25  C    0.111523
    26  H    0.103722
    27  C    0.108951
    28  H    0.102258
    29  H    0.049953
    30  O   -0.083437
    31  C    0.131370
    32  C    0.044461
    33  C   -0.082394
    34  C   -0.031846
    35  C   -0.007064
    36  C   -0.023689
    37  C   -0.030242
    38  C   -0.081099
    39  C   -0.041151
    40  H    0.034758
    41  H    0.046076
    42  H    0.039160
    43  C   -0.052301
    44  C   -0.080804
    45  C   -0.030659
    46  C   -0.023645
    47  C   -0.011588
    48  C   -0.022116
    49  H    0.038767
    50  H    0.045760
    51  H    0.034711
    52  C   -0.070130
    53  H    0.050189
    54  C    0.144990
    55  H    0.034203
    56  H    0.052251
    57  C   -0.007868
    58  C   -0.024666
    59  H    0.049294
    60  H    0.051589
    61  Br  -0.654376
    62  H    0.015408
    63  H    0.071099
 Sum of Mulliken charges =  -0.00000
 Mulliken charges with hydrogens summed into heavy atoms:
               1
     1  Mn  -0.774707
     2  C    0.377922
     3  O   -0.067342
     4  C    0.376660
     5  O   -0.067035
     6  C    0.305405
     7  N   -0.213052
     8  C    0.018109
     9  C    0.115979
    10  C    0.183638
    13  N    0.026942
    14  C   -0.077175
    15  C   -0.129432
    16  C    0.076111
    17  C    0.023100
    18  C    0.064270
    21  N   -0.210203
    22  C    0.017480
    23  C    0.104308
    25  C    0.215245
    27  C    0.211209
    30  O   -0.083437
    31  C    0.146778
    32  C    0.115560
    33  C   -0.082394
    34  C   -0.031846
    35  C    0.027694
    36  C    0.022387
    37  C    0.008917
    38  C   -0.081099
    39  C   -0.041151
    43  C   -0.052301
    44  C   -0.080804
    45  C    0.008108
    46  C    0.022115
    47  C    0.023123
    48  C   -0.022116
    52  C   -0.070130
    54  C    0.179193
    57  C    0.043721
    58  C    0.024627
    61  Br  -0.654376
 Electronic spatial extent (au):  <R**2>=          22694.5386
 Charge=             -0.0000 electrons
 Dipole moment (field-independent basis, Debye):
    X=              5.3632    Y=              5.1049    Z=              3.9091  Tot=              8.3728
 Quadrupole moment (field-independent basis, Debye-Ang):
   XX=           -234.5048   YY=           -248.8062   ZZ=           -244.0787
   XY=            -27.8392   XZ=            -21.6448   YZ=            -30.6487
 Traceless Quadrupole moment (field-independent basis, Debye-Ang):
   XX=              7.9585   YY=             -6.3430   ZZ=             -1.6155
   XY=            -27.8392   XZ=            -21.6448   YZ=            -30.6487
 Octapole moment (field-independent basis, Debye-Ang**2):
  XXX=              4.9305  YYY=             -6.4178  ZZZ=              2.0524  XYY=            -62.2231
  XXY=             90.4066  XXZ=             73.7824  XZZ=            -54.5513  YZZ=            -32.9560
  YYZ=            -44.0087  XYZ=            -55.9162
 Hexadecapole moment (field-independent basis, Debye-Ang**3):
 XXXX=         -15048.6781 YYYY=          -6670.4476 ZZZZ=          -6040.8254 XXXY=           -485.5403
 XXXZ=           -419.0924 YYYX=           -234.9706 YYYZ=           -180.6667 ZZZX=           -214.0076
 ZZZY=           -194.2147 XXYY=          -3757.1777 XXZZ=          -3697.1819 YYZZ=          -2054.3880
 XXYZ=           -273.1867 YYXZ=             54.1907 ZZXY=             50.7102
 N-N= 6.102332203654D+03 E-N=-2.503280702835D+04  KE= 5.397890818640D+03
 PrsmSu:  requested number of processors reduced to:  11 ShMem   1 Linda.
 D1PCM: PCM CHGder 1st derivatives, ID1Alg=3 FixD1E=F DoIter=F DoCFld=F I1PDM=0.
 CoulSu:  requested number of processors reduced to:  10 ShMem   1 Linda.
 CoulSu:  requested number of processors reduced to:  10 ShMem   1 Linda.
 Calling FoFJK, ICntrl=      2127 FMM=T ISym2X=0 I1Cent= 0 IOpClX= 0 NMat=1 NMatS=1 NMatT=0.
 ***** Axes restored to original set *****
 -------------------------------------------------------------------
 Center     Atomic                   Forces (Hartrees/Bohr)
 Number     Number              X              Y              Z
 -------------------------------------------------------------------
      1       25          -0.003100572   -0.001203393    0.002040601
      2        6           0.001635727   -0.000185511    0.000376455
      3        8           0.000133089   -0.000045926   -0.000121884
      4        6           0.000154677    0.000099330   -0.001095251
      5        8           0.000040925   -0.000034487    0.000287151
      6        6           0.001307675   -0.000039569   -0.000896151
      7        7           0.001978094    0.001554614    0.000555366
      8        6          -0.000886696    0.000070015   -0.000025558
      9        6          -0.000575725    0.000883733   -0.000480553
     10        6          -0.000604240   -0.000995720    0.001389845
     11        1           0.000493201   -0.000371331    0.000261680
     12        1           0.000714460   -0.000047627    0.000124428
     13        7          -0.000643979   -0.001139771   -0.000135058
     14        6           0.001491600   -0.000472241   -0.000712937
     15        6           0.000236586   -0.002742245   -0.000231438
     16        6          -0.000577541    0.000173938   -0.000585286
     17        6          -0.000395173    0.000307675   -0.000667607
     18        6           0.000555406   -0.000065910    0.000653988
     19        1           0.000313264    0.000187632    0.000354265
     20        1          -0.000226422    0.000271536   -0.000545778
     21        7           0.000657824    0.001715847   -0.002308056
     22        6          -0.000328817   -0.000027801    0.000934756
     23        6           0.000418914    0.000871188    0.000601455
     24        1          -0.000271158   -0.000373366   -0.000527119
     25        6           0.000768511    0.000519044    0.000748753
     26        1          -0.000194281   -0.000829608    0.000064940
     27        6          -0.000464027    0.000432450   -0.000988194
     28        1          -0.000240286   -0.000847943    0.000056018
     29        1           0.000448712   -0.000357661    0.000604523
     30        8          -0.001041523    0.000089875    0.000741380
     31        6           0.063216512   -0.223828155   -0.033551393
     32        6           0.114944091    0.109926106   -0.078204466
     33        6          -0.000856512   -0.002828689    0.002335166
     34        6          -0.008812585    0.001600451   -0.013371395
     35        6           0.006004592    0.016894158    0.004420637
     36        6           0.000015387   -0.016140501    0.009158320
     37        6          -0.009199275   -0.002338557   -0.012800733
     38        6          -0.008794803   -0.047024832    0.110596765
     39        6           0.011614488    0.078396324    0.088228118
     40        1           0.001108349   -0.000511661    0.000016627
     41        1           0.000954524    0.000131664    0.000135551
     42        1          -0.001066563    0.001008425   -0.000216975
     43        6          -0.079606585    0.072054036   -0.049635591
     44        6          -0.102459324   -0.051326754   -0.034331600
     45        6           0.007771518   -0.001754551    0.013810535
     46        6          -0.008062214   -0.016561809   -0.002939105
     47        6          -0.001902016    0.016474521   -0.008014372
     48        6           0.008897123    0.002366618    0.013026175
     49        1          -0.000300748    0.001038655    0.000999617
     50        1           0.000344944    0.000228447   -0.000936897
     51        1           0.000443368   -0.000478340   -0.001002124
     52        6          -0.002356259   -0.002830157    0.000313633
     53        1           0.000106761   -0.000025911   -0.000759795
     54        6          -0.001599513   -0.001018419   -0.000159171
     55        1           0.000021274    0.000686573    0.000549211
     56        1          -0.000602362    0.000469043   -0.000185577
     57        6           0.000037926    0.000785391    0.000102525
     58        6           0.000220417    0.000200375    0.000596523
     59        1          -0.000297758   -0.000356400   -0.000699997
     60        1          -0.000051986   -0.000790391   -0.000094211
     61       35          -0.000860378    0.001488084    0.000755853
     62        1           0.010649881    0.079843922   -0.009642466
     63        1          -0.001320498   -0.013174435    0.001025879
 -------------------------------------------------------------------
 Cartesian Forces:  Max     0.223828155 RMS     0.028432687

 GradGradGradGradGradGradGradGradGradGradGradGradGradGradGradGradGradGrad
 Berny optimization.
 FormGI is forming the generalized inverse of G from B-inverse, IUseBI=4.
 Internal  Forces:  Max     0.113453183 RMS     0.013227125
 Search for a local minimum.
 Step number   1 out of a maximum of  369
 All quantities printed in internal units (Hartrees-Bohrs-Radians)
 Mixed Optimization -- RFO/linear search
 Second derivative matrix not updated -- first step.
 ITU=  0
     Eigenvalues ---    0.00230   0.00230   0.00230   0.00593   0.00708
     Eigenvalues ---    0.00710   0.00953   0.01023   0.01127   0.01209
     Eigenvalues ---    0.01350   0.01423   0.01442   0.01495   0.01560
     Eigenvalues ---    0.01563   0.01603   0.01686   0.01719   0.01853
     Eigenvalues ---    0.01859   0.01883   0.01917   0.01941   0.02087
     Eigenvalues ---    0.02109   0.02130   0.02135   0.02140   0.02141
     Eigenvalues ---    0.02145   0.02145   0.02160   0.02161   0.02163
     Eigenvalues ---    0.02163   0.02171   0.02175   0.02175   0.02176
     Eigenvalues ---    0.02179   0.02181   0.02182   0.02188   0.02193
     Eigenvalues ---    0.02216   0.02218   0.02261   0.02272   0.02348
     Eigenvalues ---    0.02349   0.02357   0.02376   0.02796   0.03452
     Eigenvalues ---    0.03849   0.04491   0.04996   0.04996   0.05070
     Eigenvalues ---    0.05070   0.05071   0.05071   0.06150   0.07104
     Eigenvalues ---    0.08364   0.08517   0.08612   0.09417   0.09580
     Eigenvalues ---    0.09736   0.10201   0.12537   0.12779   0.13997
     Eigenvalues ---    0.14182   0.14961   0.15066   0.15758   0.15993
     Eigenvalues ---    0.15995   0.15995   0.15996   0.15998   0.15998
     Eigenvalues ---    0.15998   0.15999   0.15999   0.15999   0.15999
     Eigenvalues ---    0.16000   0.16000   0.16000   0.16000   0.16000
     Eigenvalues ---    0.16000   0.16000   0.16000   0.16607   0.17382
     Eigenvalues ---    0.21113   0.21397   0.22000   0.22000   0.22048
     Eigenvalues ---    0.22095   0.22138   0.22194   0.22721   0.23148
     Eigenvalues ---    0.23154   0.23309   0.23449   0.23483   0.23487
     Eigenvalues ---    0.23499   0.23735   0.23766   0.23880   0.24301
     Eigenvalues ---    0.24532   0.24894   0.24909   0.24990   0.24995
     Eigenvalues ---    0.32723   0.33203   0.34451   0.34467   0.34468
     Eigenvalues ---    0.34470   0.34477   0.34488   0.34490   0.34519
     Eigenvalues ---    0.34521   0.34529   0.34534   0.34575   0.34577
     Eigenvalues ---    0.34598   0.34603   0.34644   0.34658   0.34736
     Eigenvalues ---    0.34825   0.36328   0.38005   0.39620   0.39702
     Eigenvalues ---    0.40686   0.41583   0.41705   0.41766   0.41970
     Eigenvalues ---    0.42267   0.43902   0.43964   0.44176   0.44951
     Eigenvalues ---    0.45736   0.45792   0.45936   0.45945   0.46016
     Eigenvalues ---    0.46111   0.46397   0.46521   0.46556   0.46686
     Eigenvalues ---    0.46745   0.46794   0.47060   0.47135   0.47173
     Eigenvalues ---    0.54496   0.54726   0.55809   0.56706   1.29553
     Eigenvalues ---    1.34394   1.38406   1.38442
 RFO step:  Lambda=-1.82062180D-01 EMin= 2.30000000D-03
 Linear search not attempted -- first point.
 Maximum step size (   0.300) exceeded in Quadratic search.
    -- Step size scaled by   0.420
 Iteration  1 RMS(Cart)=  0.10745387 RMS(Int)=  0.00057409
 Iteration  2 RMS(Cart)=  0.00142566 RMS(Int)=  0.00008052
 Iteration  3 RMS(Cart)=  0.00000072 RMS(Int)=  0.00008052
 Variable       Old X    -DE/DX   Delta X   Delta X   Delta X     New X
                                 (Linear)    (Quad)   (Total)
    R1        3.42462   0.00163   0.00000   0.00165   0.00165   3.42627
    R2        3.42898   0.00082   0.00000   0.00083   0.00083   3.42982
    R3        3.39163   0.00009   0.00000   0.00009   0.00008   3.39171
    R4        4.10621  -0.00274   0.00000  -0.00408  -0.00418   4.10203
    R5        4.11526  -0.00418   0.00000  -0.00625  -0.00635   4.10891
    R6        4.92107   0.00172   0.00000   0.00286   0.00286   4.92393
    R7        2.16303   0.00008   0.00000   0.00002   0.00002   2.16305
    R8        2.16294  -0.00028   0.00000  -0.00007  -0.00007   2.16286
    R9        2.17365  -0.00066   0.00000  -0.00018  -0.00018   2.17347
   R10        2.52481   0.00193   0.00000   0.00110   0.00107   2.52588
   R11        2.53652  -0.00105   0.00000  -0.00058  -0.00060   2.53591
   R12        2.63032  -0.00061   0.00000  -0.00042  -0.00041   2.62991
   R13        2.06234  -0.00065   0.00000  -0.00052  -0.00052   2.06183
   R14        2.62427  -0.00043   0.00000  -0.00030  -0.00030   2.62397
   R15        2.06544  -0.00069   0.00000  -0.00055  -0.00055   2.06489
   R16        2.63452   0.00081   0.00000   0.00052   0.00054   2.63506
   R17        2.63603  -0.00042   0.00000  -0.00021  -0.00029   2.63574
   R18        2.06105  -0.00078   0.00000  -0.00062  -0.00062   2.06043
   R19        2.18705  -0.00283   0.00000  -0.00081  -0.00080   2.18624
   R20        4.86748  -0.00413   0.00000  -0.00861  -0.00861   4.85887
   R21        2.72073  -0.00235   0.00000  -0.00171  -0.00171   2.71902
   R22        2.64735   0.00044   0.00000   0.00030   0.00029   2.64764
   R23        2.64767   0.00018   0.00000   0.00012   0.00012   2.64780
   R24        2.62925  -0.00009   0.00000  -0.00006  -0.00006   2.62919
   R25        2.06332  -0.00050   0.00000  -0.00040  -0.00040   2.06292
   R26        2.06460  -0.00082   0.00000  -0.00066  -0.00066   2.06395
   R27        2.63761  -0.00002   0.00000  -0.00002  -0.00002   2.63759
   R28        2.06368  -0.00064   0.00000  -0.00051  -0.00051   2.06317
   R29        2.62984  -0.00011   0.00000  -0.00007  -0.00007   2.62977
   R30        2.53656  -0.00124   0.00000  -0.00069  -0.00071   2.53585
   R31        2.52415   0.00107   0.00000   0.00055   0.00052   2.52467
   R32        2.63070  -0.00090   0.00000  -0.00055  -0.00053   2.63017
   R33        2.06257  -0.00066   0.00000  -0.00052  -0.00052   2.06205
   R34        2.62428  -0.00051   0.00000  -0.00028  -0.00028   2.62400
   R35        2.63566   0.00071   0.00000   0.00045   0.00047   2.63613
   R36        2.06575  -0.00074   0.00000  -0.00059  -0.00059   2.06516
   R37        2.06324  -0.00085   0.00000  -0.00068  -0.00068   2.06257
   R38        2.06371  -0.00086   0.00000  -0.00068  -0.00068   2.06302
   R39        3.35824  -0.11345   0.00000  -0.14456  -0.14442   3.21383
   R40        3.35922  -0.11184   0.00000  -0.14252  -0.14238   3.21684
   R41        1.90048   0.07757   0.00000   0.05016   0.05017   1.95066
   R42        3.35320  -0.11269   0.00000  -0.14334  -0.14338   3.20981
   R43        3.35437  -0.11299   0.00000  -0.14358  -0.14359   3.21078
   R44        2.03571   0.01325   0.00000   0.01020   0.01020   2.04592
   R45        2.81968  -0.00204   0.00000  -0.00165  -0.00165   2.81803
   R46        2.64255  -0.00740   0.00000  -0.00509  -0.00507   2.63748
   R47        2.66097   0.00504   0.00000   0.00339   0.00355   2.66451
   R48        2.63247   0.01504   0.00000   0.00943   0.00942   2.64189
[...]
    D7       -2.77532  -0.00012  -0.00057   0.00008  -0.00050  -2.77581
    D8        0.32742  -0.00010  -0.00020  -0.00091  -0.00111   0.32630
    D9        1.15059   0.00000   0.00083   0.00021   0.00105   1.15163
   D10       -2.03090   0.00002   0.00102  -0.00031   0.00071  -2.03020
   D11        2.72618   0.00001   0.00073   0.00045   0.00118   2.72736
   D12       -0.45532   0.00003   0.00092  -0.00008   0.00084  -0.45447
   D13       -1.93310   0.00003   0.00057   0.00066   0.00123  -1.93187
   D14        1.16859   0.00005   0.00075   0.00013   0.00089   1.16948
   D15       -0.32550   0.00002   0.00102   0.00013   0.00115  -0.32436
   D16        2.77619   0.00004   0.00120  -0.00039   0.00081   2.77700
   D17        3.02068   0.00005   0.00012  -0.00038  -0.00026   3.02042
   D18       -0.11795  -0.00001   0.00015  -0.00024  -0.00009  -0.11804
   D19       -0.08402   0.00003  -0.00024   0.00057   0.00033  -0.08368
   D20        3.06054  -0.00003  -0.00021   0.00071   0.00050   3.06104
   D21       -3.09185  -0.00001  -0.00019   0.00038   0.00019  -3.09165
   D22        0.03371  -0.00003  -0.00006   0.00029   0.00023   0.03394
   D23        0.01190   0.00001   0.00016  -0.00057  -0.00041   0.01149
   D24        3.13745  -0.00001   0.00029  -0.00067  -0.00037   3.13708
   D25       -0.03230   0.00001  -0.00008  -0.00030  -0.00038  -0.03268
   D26        3.12265  -0.00002  -0.00039   0.00039  -0.00000   3.12265
   D27        3.08213   0.00003   0.00000  -0.00032  -0.00031   3.08181
   D28       -0.04610   0.00001  -0.00031   0.00037   0.00006  -0.04604
   D29        0.05179  -0.00003   0.00011   0.00012   0.00023   0.05202
   D30       -3.07297  -0.00001  -0.00003   0.00022   0.00019  -3.07278
   D31       -3.11656  -0.00000   0.00019   0.00010   0.00029  -3.11627
   D32        0.04187   0.00002   0.00005   0.00020   0.00025   0.04212
   D33       -0.01835   0.00003   0.00024  -0.00039  -0.00015  -0.01850
   D34        3.12570   0.00010   0.00032  -0.00064  -0.00032   3.12538
   D35        3.13654   0.00000  -0.00007   0.00030   0.00023   3.13677
   D36       -0.00259   0.00007   0.00001   0.00005   0.00006  -0.00253
   D37        0.08747  -0.00005   0.00004  -0.00010  -0.00006   0.08741
   D38       -3.05651  -0.00011  -0.00004   0.00015   0.00011  -3.05640
   D39       -3.05714   0.00001   0.00001  -0.00024  -0.00023  -3.05737
   D40        0.08207  -0.00006  -0.00007   0.00000  -0.00006   0.08200
   D41       -0.24274  -0.00012   0.00165  -0.00088   0.00078  -0.24196
   D42       -3.12128   0.00052   0.00070   0.00114   0.00184  -3.11944
   D43        3.13892  -0.00051   0.00248  -0.00043   0.00205   3.14096
   D44        0.26038   0.00013   0.00153   0.00159   0.00310   0.26348
   D45       -3.11415  -0.00001   0.00105  -0.00087   0.00018  -3.11397
   D46        0.02090   0.00003   0.00050  -0.00050  -0.00000   0.02090
   D47        0.01262  -0.00008   0.00047  -0.00032   0.00015   0.01277
   D48       -3.13551  -0.00003  -0.00008   0.00005  -0.00003  -3.13554
   D49       -0.02244  -0.00003  -0.00069   0.00053  -0.00016  -0.02260
   D50        3.11406   0.00001  -0.00103   0.00092  -0.00012   3.11395
   D51        3.13398   0.00004  -0.00011  -0.00002  -0.00014   3.13384
   D52       -0.01271   0.00008  -0.00046   0.00037  -0.00009  -0.01280
   D53        3.13545   0.00003  -0.00026   0.00029   0.00003   3.13548
   D54       -0.00164   0.00003  -0.00011  -0.00002  -0.00013  -0.00177
   D55        0.00045  -0.00001   0.00029  -0.00008   0.00021   0.00065
   D56       -3.13664  -0.00001   0.00044  -0.00040   0.00005  -3.13659
   D57       -0.00923   0.00002  -0.00026   0.00032   0.00006  -0.00918
   D58        3.13524  -0.00000  -0.00005   0.00004  -0.00002   3.13523
   D59        3.13689   0.00002  -0.00011   0.00000  -0.00010   3.13679
   D60       -0.00182  -0.00000   0.00010  -0.00028  -0.00018  -0.00200
   D61        0.00180  -0.00002   0.00008  -0.00007   0.00001   0.00181
   D62       -3.13539  -0.00003   0.00027  -0.00020   0.00007  -3.13533
   D63        3.13827   0.00002  -0.00026   0.00032   0.00006   3.13833
   D64        0.00107   0.00001  -0.00007   0.00019   0.00012   0.00119
   D65        3.09016   0.00001   0.00012  -0.00032  -0.00020   3.08996
   D66       -0.03436   0.00001  -0.00001  -0.00034  -0.00036  -0.03472
   D67       -0.01259  -0.00000  -0.00006   0.00020   0.00014  -0.01246
   D68       -3.13711  -0.00001  -0.00020   0.00017  -0.00002  -3.13714
   D69       -3.01941  -0.00003  -0.00006   0.00042   0.00037  -3.01905
   D70        0.12013   0.00000  -0.00011   0.00020   0.00009   0.12022
   D71        0.08426  -0.00001   0.00012  -0.00007   0.00005   0.08431
   D72       -3.05938   0.00002   0.00007  -0.00029  -0.00023  -3.05961
   D73       -3.12266   0.00001   0.00022  -0.00029  -0.00007  -3.12273
   D74        0.03259  -0.00001  -0.00008   0.00016   0.00008   0.03267
   D75        0.04623  -0.00000   0.00021  -0.00023  -0.00002   0.04621
   D76       -3.08170  -0.00002  -0.00009   0.00022   0.00013  -3.08158
   D77       -0.05127   0.00001  -0.00010  -0.00004  -0.00015  -0.05142
   D78        3.07240   0.00002   0.00004  -0.00002   0.00002   3.07242
   D79        3.11721  -0.00001  -0.00011   0.00001  -0.00010   3.11710
   D80       -0.04230   0.00000   0.00003   0.00003   0.00006  -0.04224
   D81       -3.12583  -0.00007  -0.00018   0.00040   0.00022  -3.12561
   D82        0.01782  -0.00001  -0.00015   0.00033   0.00018   0.01800
   D83        0.00217  -0.00005   0.00012  -0.00005   0.00007   0.00224
   D84       -3.13737   0.00001   0.00015  -0.00011   0.00003  -3.13734
   D85       -2.98386   0.00017   0.00010  -0.00009   0.00001  -2.98385
   D86        0.14332   0.00016  -0.00042  -0.00022  -0.00064   0.14268
   D87        0.18255   0.00020   0.00012   0.00150   0.00162   0.18418
   D88       -2.97346   0.00019  -0.00040   0.00138   0.00098  -2.97248
   D89       -0.14374  -0.00017   0.00036   0.00014   0.00050  -0.14324
   D90        2.98295  -0.00015  -0.00018   0.00123   0.00106   2.98401
   D91        2.97305  -0.00019   0.00035  -0.00144  -0.00109   2.97196
   D92       -0.18344  -0.00017  -0.00019  -0.00035  -0.00054  -0.18398
   D93        3.11177  -0.00003  -0.00023   0.00062   0.00040   3.11217
   D94       -0.04506  -0.00004   0.00020   0.00044   0.00064  -0.04442
   D95       -0.01537   0.00001   0.00007  -0.00053  -0.00046  -0.01583
   D96        3.11099   0.00000   0.00049  -0.00071  -0.00022   3.11077
   D97        0.04465   0.00003  -0.00025  -0.00051  -0.00076   0.04388
   D98       -3.11209   0.00002   0.00012  -0.00111  -0.00099  -3.11308
   D99       -3.11141  -0.00001  -0.00055   0.00064   0.00009  -3.11131
   D100       0.01505  -0.00002  -0.00017   0.00004  -0.00013   0.01491
   D101       0.87656   0.00002   0.00055  -0.00022   0.00034   0.87690
   D102      -2.31494  -0.00010   0.00033  -0.00032   0.00002  -2.31492
   D103      -2.26250   0.00008   0.00064  -0.00048   0.00016  -2.26234
   D104       0.82919  -0.00003   0.00042  -0.00058  -0.00016   0.82902
   D105       3.07342  -0.00013  -0.00029   0.00003  -0.00027   3.07315
   D106      -0.02424  -0.00010  -0.00024  -0.00018  -0.00043  -0.02467
   D107      -0.01862  -0.00001  -0.00007   0.00012   0.00005  -0.01857
   D108      -3.11628   0.00001  -0.00002  -0.00009  -0.00011  -3.11639
   D109       0.10746   0.00016  -0.00024   0.00006  -0.00018   0.10728
   D110      -3.01962   0.00017   0.00029   0.00019   0.00047  -3.01914
   D111      -3.08316   0.00005  -0.00046  -0.00004  -0.00050  -3.08366
   D112       0.07295   0.00006   0.00007   0.00009   0.00016   0.07311
   D113      -0.03402  -0.00003  -0.00002  -0.00009  -0.00010  -0.03412
   D114       3.14147   0.00001   0.00016  -0.00018  -0.00002   3.14145
   D115       3.06393  -0.00005  -0.00006   0.00012   0.00006   3.06400
   D116      -0.04377  -0.00002   0.00011   0.00003   0.00015  -0.04362
   D117       0.03064   0.00002   0.00010  -0.00017  -0.00007   0.03057
   D118      -3.10424   0.00003   0.00044  -0.00012   0.00032  -3.10392
   D119       3.13793  -0.00001  -0.00007  -0.00008  -0.00015   3.13778
   D120       0.00306  -0.00000   0.00026  -0.00003   0.00023   0.00329
   D121      -3.13244   0.00002   0.00032   0.00020   0.00051  -3.13193
   D122       0.02435   0.00003  -0.00010   0.00038   0.00028   0.02462
   D123       0.00255   0.00001  -0.00001   0.00014   0.00013   0.00269
   D124      -3.12384   0.00001  -0.00043   0.00033  -0.00010  -3.12395
   D125      -0.04692  -0.00005   0.00012  -0.00004   0.00008  -0.04684
   D126       3.08063  -0.00006  -0.00039  -0.00016  -0.00055   3.08009
   D127       3.07997  -0.00006   0.00053  -0.00022   0.00031   3.08028
   D128      -0.07566  -0.00006   0.00002  -0.00034  -0.00032  -0.07598
   D129       0.04775   0.00006  -0.00005   0.00021   0.00016   0.04791
   D130      -3.07924   0.00007  -0.00041   0.00079   0.00038  -3.07886
   D131      -3.07933   0.00003   0.00047  -0.00085  -0.00038  -3.07971
   D132       0.07687   0.00005   0.00011  -0.00027  -0.00016   0.07671
   D133       3.08217  -0.00007   0.00040  -0.00059  -0.00019   3.08198
   D134      -0.10799  -0.00016   0.00025  -0.00054  -0.00029  -0.10828
   D135      -0.07443  -0.00004  -0.00015   0.00051   0.00037  -0.07406
   D136       3.01860  -0.00014  -0.00030   0.00056   0.00027   3.01887
   D137       3.13227  -0.00000  -0.00038   0.00038   0.00000   3.13227
   D138      -0.00314   0.00000   0.00002   0.00031   0.00034  -0.00280
   D139      -0.02443  -0.00002  -0.00000  -0.00022  -0.00023  -0.02465
   D140       3.12335  -0.00001   0.00040  -0.00029   0.00011   3.12346
   D141      -0.03142  -0.00001  -0.00007   0.00049   0.00042  -0.03100
   D142      -3.13840   0.00001   0.00012   0.00014   0.00026  -3.13814
   D143       3.10387  -0.00002  -0.00048   0.00056   0.00007   3.10394
   D144      -0.00310   0.00001  -0.00029   0.00020  -0.00009  -0.00319
   D145       0.03453   0.00001   0.00004  -0.00025  -0.00021   0.03433
   D146      -3.06358   0.00004  -0.00007  -0.00035  -0.00042  -3.06401
   D147      -3.14127  -0.00001  -0.00015   0.00010  -0.00005  -3.14132
   D148       0.04380   0.00002  -0.00025  -0.00001  -0.00026   0.04353
   D149       0.01924   0.00002   0.00007  -0.00026  -0.00019   0.01905
   D150      -3.07325   0.00011   0.00023  -0.00031  -0.00008  -3.07333
   D151       3.11707  -0.00001   0.00018  -0.00016   0.00002   3.11709
   D152       0.02458   0.00008   0.00034  -0.00020   0.00013   0.02471
   D153       2.31560   0.00004  -0.00043  -0.00017  -0.00059   2.31501
   D154      -0.82811  -0.00002  -0.00045  -0.00010  -0.00056  -0.82867
   D155      -0.87544  -0.00005  -0.00059  -0.00012  -0.00071  -0.87615
   D156       2.26404  -0.00012  -0.00061  -0.00006  -0.00067   2.26337
   D157      -0.08710   0.00001  -0.00002  -0.00019  -0.00020  -0.08730
   D158       3.05658  -0.00002   0.00004   0.00004   0.00008   3.05666
   D159       3.05649   0.00008   0.00001  -0.00025  -0.00024   3.05625
   D160      -0.08302   0.00004   0.00006  -0.00002   0.00004  -0.08297
   D161       0.00915  -0.00002   0.00028  -0.00027   0.00000   0.00915
   D162      -3.13686  -0.00002   0.00009  -0.00014  -0.00005  -3.13691
   D163      -3.13533  -0.00000   0.00007   0.00001   0.00008  -3.13525
   D164       0.00185   0.00000  -0.00012   0.00014   0.00002   0.00187
         Item               Value     Threshold  Converged?
 Maximum Force            0.000534     0.000450     NO 
 RMS     Force            0.000074     0.000300     YES
 Maximum Displacement     0.013608     0.001800     NO 
 RMS     Displacement     0.002146     0.001200     NO 
 Predicted change in Energy=-1.371903D-06
 GradGradGradGradGradGradGradGradGradGradGradGradGradGradGradGradGradGrad

 Stoichiometry    C34H21BrMnN3O3
 Framework group  C1[X(C34H21BrMnN3O3)]
 Deg. of freedom   183
 Full point group                 C1      NOp   1
 Largest Abelian subgroup         C1      NOp   1
 Largest concise Abelian subgroup C1      NOp   1
                         Standard orientation:                         
 ---------------------------------------------------------------------
 Center     Atomic      Atomic             Coordinates (Angstroms)
 Number     Number       Type             X           Y           Z
 ---------------------------------------------------------------------
      1         25           0       -1.436854    0.078556   -2.020701
      2          6           0       -2.197142    1.431408   -2.969309
      3          8           0       -2.675864    2.287699   -3.558049
      4          6           0       -2.203975   -1.198579   -3.064088
      5          8           0       -2.687566   -2.007540   -3.712755
      6          6           0       -0.005554    0.113293   -3.100307
      7          7           0       -0.595868   -1.475421   -0.756406
      8          6           0       -0.819038   -3.245270    0.841060
      9          6           0        0.561625   -3.333013    0.984565
     10          6           0        0.729839   -1.620152   -0.663820
     11          1           0       -1.484760   -3.898286    1.406668
     12          1           0        1.006446   -4.037967    1.690122
     13          7           0        0.060196   -0.086575    2.397185
     14          6           0       -1.070750   -0.098178    2.642723
     15          6           0       -2.476666   -0.114531    2.942609
     16          6           0       -3.152695   -1.337818    3.044411
     17          6           0       -4.519564   -1.346651    3.302019
     18          6           0       -3.166070    1.093373    3.113716
     19          1           0       -2.606319   -2.272409    2.915263
     20          1           0       -2.629924    2.039717    3.039803
     21          7           0       -0.590039    1.533902   -0.647374
     22          6           0       -0.808848    3.181926    1.076053
     23          6           0        0.571947    3.254564    1.226233
     24          1           0       -1.472976    3.793176    1.688255
     25          6           0       -1.359230   -2.290394   -0.011131
     26          1           0       -2.438077   -2.153578   -0.097485
     27          6           0       -1.351334    2.294369    0.155357
     28          1           0       -2.430523    2.167393    0.058896
     29          1           0       -5.050089   -2.297420    3.376204
     30          8           0        0.871799    0.136870   -3.843699
     31          6           0        2.912579   -0.023296    0.596117
     32          6           0        5.692989   -0.021710    0.420567
     33          6           0        1.373431   -2.491605    0.222312
     34          6           0        2.858005   -2.494532    0.317841
     35          6           0        3.567571   -3.666138    0.234374
     36          6           0        4.993326   -3.670428    0.241952
     37          6           0        5.694625   -2.499393    0.293029
     38          6           0        5.009705   -1.244209    0.377707
     39          6           0        3.575161   -1.242842    0.438722
     40          1           0        3.035717   -4.613548    0.119103
     41          1           0        5.520528   -4.624035    0.173873
     42          1           0        6.786729   -2.502322    0.263419
     43          6           0        3.579712    1.202187    0.528677
     44          6           0        5.014187    1.203265    0.468424
     45          6           0        5.703139    2.459067    0.477933
     46          6           0        5.005440    3.632844    0.514160
     47          6           0        3.579618    3.633791    0.505227
     48          6           0        2.866364    2.461457    0.500452
     49          1           0        6.795278    2.460821    0.449466
     50          1           0        5.535708    4.587175    0.517991
     51          1           0        3.050915    4.588956    0.460831
     52          6           0        1.381815    2.469563    0.404120
     53          1           0        1.018478    3.903830    1.982293
     54          6           0        0.736049    1.667655   -0.544085
     55          1           0        1.342618    1.105636   -1.252768
     56          1           0        1.337993   -1.008523   -1.328795
     57          6           0       -5.209711   -0.144108    3.459616
     58          6           0       -4.532790    1.072866    3.370948
     59          1           0       -5.073513    2.012101    3.498829
     60          1           0       -6.283679   -0.155561    3.655785
     61         35           0       -3.715996    0.037704   -0.726653
     62          1           0        1.845077   -0.027690    0.802154
     63          1           0        6.786037   -0.023289    0.403567
 ---------------------------------------------------------------------
 Rotational constants (GHZ):           0.1072500           0.0573333           0.0571453
 Basis read from rwf:  (5D, 7F)
 There are   802 symmetry adapted cartesian basis functions of A   symmetry.
 There are   751 symmetry adapted basis functions of A   symmetry.
   751 basis functions,  1339 primitive gaussians,   802 cartesian basis functions
   165 alpha electrons      165 beta electrons
       nuclear repulsion energy      6235.1655430449 Hartrees.
 NAtoms=   63 NActive=   63 NUniq=   63 SFac= 1.00D+00 NAtFMM=   60 NAOKFM=T Big=T
 Integral buffers will be    131072 words long.
 Raffenetti 2 integral format.
 Two-electron integral symmetry is turned on.
 Nuclear repulsion after empirical dispersion term =     6235.0937444093 Hartrees.
 ------------------------------------------------------------------------------
 Polarizable Continuum Model (PCM)
 =================================
 Model                : PCM.
 Atomic radii         : UFF (Universal Force Field).
 Polarization charges : Total charges.
 Charge compensation  : None.
 Solution method      : On-the-fly selection.
 Cavity type          : Scaled VdW (van der Waals Surface) (Alpha=1.100).
 Cavity algorithm     : GePol (No added spheres)
                        Default sphere list used, NSphG=   63.
                        Lebedev-Laikov grids with approx.  5.0 points / Ang**2.
                        Smoothing algorithm: York/Karplus (Gamma=1.0000).
                        Polarization charges: spherical gaussians, with
                                              point-specific exponents (IZeta= 3).
                        Self-potential: point-specific (ISelfS= 7).
                        Self-field    : sphere-specific E.n sum rule (ISelfD= 2).
 1st derivatives      : Analytical E(r).r(x)/FMM algorithm (CHGder, D1EAlg=3).
                        Cavity 1st derivative terms included.
 Solvent              : TetraHydroFuran, Eps=   7.425700 Eps(inf)=   1.974025
 ------------------------------------------------------------------------------
 One-electron integrals computed using PRISM.
 PrsmSu:  requested number of processors reduced to:  11 ShMem   1 Linda.
 NBasis=   751 RedAO= T EigKep=  2.23D-04  NBF=   751
 NBsUse=   751 1.00D-06 EigRej= -1.00D+00 NBFU=   751
 Initial guess from the checkpoint file:  "checkpoint.chk"
 B after Tr=     0.000000   -0.000000    0.000000
         Rot=    0.999980   -0.006280    0.000002    0.000131 Ang=  -0.72 deg.
 Requested convergence on RMS density matrix=1.00D-08 within 128 cycles.
 Requested convergence on MAX density matrix=1.00D-06.
 Requested convergence on             energy=1.00D-06.
 No special actions if energy rises.
 Inv3:  Mode=1 IEnd=    60076875.
 Iteration    1 A*A^-1 deviation from unit magnitude is 3.77D-15 for   3677.
 Iteration    1 A*A^-1 deviation from orthogonality  is 3.22D-15 for   2869    362.
 Iteration    1 A^-1*A deviation from unit magnitude is 3.77D-15 for   3677.
 Iteration    1 A^-1*A deviation from orthogonality  is 2.00D-15 for   2839    706.
