 Entering Gaussian System, Link 0=g16
 Initial command:
 /home1/apps/gaussian/16rA.03/g16/l1.exe "/tmp/Gau-126650.inp" -scrdir="/tmp/"
 Entering Link 1 = /home1/apps/gaussian/16rA.03/g16/l1.exe PID=    126651.
  
 Copyright (c) 1988,1990,1992,1993,1995,1998,2003,2009,2016,
            Gaussian, Inc.  All Rights Reserved.
  
 This is part of the Gaussian(R) 16 program.  It is based on
 the Gaussian(R) 09 system (copyright 2009, Gaussian, Inc.),
 the Gaussian(R) 03 system (copyright 2003, Gaussian, Inc.),
 the Gaussian(R) 98 system (copyright 1998, Gaussian, Inc.),
 the Gaussian(R) 94 system (copyright 1995, Gaussian, Inc.),
 the Gaussian 92(TM) system (copyright 1992, Gaussian, Inc.),
 the Gaussian 90(TM) system (copyright 1990, Gaussian, Inc.),
 the Gaussian 88(TM) system (copyright 1988, Gaussian, Inc.),
 the Gaussian 86(TM) system (copyright 1986, Carnegie Mellon
 University), and the Gaussian 82(TM) system (copyright 1983,
 Carnegie Mellon University). Gaussian is a federally registered
 trademark of Gaussian, Inc.
  
 This software contains proprietary and confidential information,
 including trade secrets, belonging to Gaussian, Inc.
  
 This software is provided under written license and may be
 used, copied, transmitted, or stored only in accord with that
 written license.
  
 The following legend is applicable only to US Government
 contracts under FAR:
  
                    RESTRICTED RIGHTS LEGEND
  
 Use, reproduction and disclosure by the US Government is
 subject to restrictions as set forth in subparagraphs (a)
 and (c) of the Commercial Computer Software - Restricted
 Rights clause in FAR 52.227-19.
  
 Gaussian, Inc.
 340 Quinnipiac St., Bldg. 40, Wallingford CT 06492
  
  
 ---------------------------------------------------------------
 Warning -- This program may not be used in any manner that
 competes with the business of Gaussian, Inc. or will provide
 assistance to any competitor of Gaussian, Inc.  The licensee
 of this program is prohibited from giving any competitor of
 Gaussian, Inc. access to this program.  By using this program,
 the user acknowledges that Gaussian, Inc. is engaged in the
 business of creating and licensing software in the field of
 computational chemistry and represents and warrants to the
 licensee that it is not a competitor of Gaussian, Inc. and that
 it will not use this program in any manner prohibited above.
 ---------------------------------------------------------------
  

 Cite this work as:
 Gaussian 16, Revision A.03,
 M. J. Frisch, G. W. Trucks, H. B. Schlegel, G. E. Scuseria, 
 M. A. Robb, J. R. Cheeseman, G. Scalmani, V. Barone, 
 G. A. Petersson, H. Nakatsuji, X. Li, M. Caricato, A. V. Marenich, 
 J. Bloino, B. G. Janesko, R. Gomperts, B. Mennucci, H. P. Hratchian, 
 J. V. Ortiz, A. F. Izmaylov, J. L. Sonnenberg, D. Williams-Young, 
 F. Ding, F. Lipparini, F. Egidi, J. Goings, B. Peng, A. Petrone, 
 T. Henderson, D. Ranasinghe, V. G. Zakrzewski, J. Gao, N. Rega, 
 G. Zheng, W. Liang, M. Hada, M. Ehara, K. Toyota, R. Fukuda, 
 J. Hasegawa, M. Ishida, T. Nakajima, Y. Honda, O. Kitao, H. Nakai, 
 T. Vreven, K. Throssell, J. A. Montgomery, Jr., J. E. Peralta, 
 F. Ogliaro, M. J. Bearpark, J. J. Heyd, E. N. Brothers, K. N. Kudin, 
 V. N. Staroverov, T. A. Keith, R. Kobayashi, J. Normand, 
 K. Raghavachari, A. P. Rendell, J. C. Burant, S. S. Iyengar, 
 J. Tomasi, M. Cossi, J. M. Millam, M. Klene, C. Adamo, R. Cammi, 
 J. W. Ochterski, R. L. Martin, K. Morokuma, O. Farkas, 
 J. B. Foresman, and D. J. Fox, Gaussian, Inc., Wallingford CT, 2016.
 
 ******************************************
 Gaussian 16:  ES64L-G16RevA.03 25-Dec-2016
                20-Dec-2022 
 ******************************************
 %NProcShared=12
 Will use up to   12 processors via shared memory.
 %Chk=checkpoint.chk
 -----------------------------------------------
 # wB97XD Gen SCRF=(Solvent=TetraHydroFuran) Opt
 -----------------------------------------------
 1/18=20,19=15,26=3,38=1/1,3;
 2/9=110,12=2,17=6,18=5,40=1/2;
 3/5=7,11=2,25=1,30=1,70=2201,71=1,72=20,74=-58/1,2,3;
 4//1;
 5/5=2,38=5,53=20/2;
 6/7=2,8=2,9=2,10=2,28=1/1;
 7//1,2,3,16;
 1/18=20,19=15,26=3/3(2);
 2/9=110/2;
 99//99;
 2/9=110/2;
 3/5=7,6=1,11=2,25=1,30=1,70=2205,71=1,72=20,74=-58,82=7/1,2,3;
 4/5=5,16=3,69=1/1;
 5/5=2,38=5,53=20/2;
 7//1,2,3,16;
 1/18=20,19=15,26=3/3(-5);
 2/9=110/2;
 6/7=2,8=2,9=2,10=2,19=2,28=1/1;
 99/9=1/99;
 --------------------------
 Anth Reactant Optimization
 --------------------------
 Symbolic Z-matrix:
 Charge =  0 Multiplicity = 1
 Mn                    8.61564   3.04629   14.7607 
 C                     10.21396   3.6436    15.4293 
 O                     11.22487   3.93738   15.86875 
 C                     8.9574    3.75282   13.10526 
 O                     9.15418   4.13703   12.04907 
 C                     9.43671   1.50443   14.25828 
 N                     6.65512   2.40028   14.02027 
 C                     4.51204   2.98077   13.11518 
 C                     4.07227   1.66628   13.24514 
 C                     6.24194   1.1325    14.09169 
 H                     3.86051   3.75926   12.71488 
 H                     3.05462   1.38477   12.96261 
 N                     7.65962   4.72516   15.35325 
 C                     7.13184   5.68196   15.7197 
 C                     6.43175   6.83046   16.22017 
 C                     5.21497   6.63874   16.89319 
 C                     4.54023   7.7451    17.39686 
 C                     6.97479   8.11122   16.04617 
 H                     4.81051   5.63137   17.01619 
 H                     7.93008   8.21543   15.51791 
 N                     8.13012   2.28636   16.76442 
 C                     7.75486   2.72519   19.09142 
 C                     7.32647   1.4164    19.29552 
 H                     7.78496   3.4459    19.91028 
 C                     5.79773   3.30674   13.52061 
 H                     6.15516   4.33457   13.43941 
 C                     8.13683   3.12071   17.81802 
 H                     8.46346   4.14626   17.63765 
 H                     3.59258   7.60985   17.92323 
 O                     9.99675   0.56371   13.91998 
 C                     4.76716  -0.32634   16.66635 
 C                     4.0372   -3.41551   16.9314 
 C                     4.95514   0.71273   13.75023 
 C                     4.5734   -0.71729   13.92778 
 C                     4.24643  -1.48956   12.80812 
 C                     3.91463  -2.83542   12.94052 
 C                     3.90497  -3.43191   14.19774 
 C                     4.18718  -2.66563   15.33083 
 C                     4.52085  -1.31014   15.20396 
 H                     4.27463  -1.02564   11.81896 
 H                     3.67431  -3.42887   12.05548 
 H                     3.66699  -4.49285   14.3069 
 C                     5.8012   -1.40306   17.63494 
 C                     5.46127  -2.75745   17.7591 
 C                     6.20717  -3.60033   18.58593 
 C                     7.26788  -3.08238   19.32238 
 C                     7.61154  -1.73857   19.20186 
 C                     6.90338  -0.88864   18.34489 
 H                     5.94614  -4.65905   18.65724 
 H                     7.84267  -3.73581   19.98261 
 H                     8.45932  -1.33739   19.76288 
 C                     7.32841   0.53481   18.21519 
 H                     6.99261   1.08281   20.28145 
 C                     7.7691    1.01922   16.98175 
 H                     7.83213   0.32673   16.1428 
 H                     6.96115   0.38617   14.42992 
 C                     5.0748    9.02468   17.22955 
 C                     6.28416   9.20635   16.55729 
 H                     6.69646   10.21027   16.43156 
 H                     4.5414    9.89074   17.63006 
 Br                    6.04698   5.87596   12.80293 
 H                     3.58868  -4.26382   17.14256 
 H                     4.50059   0.63183   16.99315 
 
 Add virtual bond connecting atoms N7         and Mn1        Dist= 4.14D+00.
 Add virtual bond connecting atoms N21        and Mn1        Dist= 4.15D+00.

 GradGradGradGradGradGradGradGradGradGradGradGradGradGradGradGradGradGrad
 Berny optimization.
 Initialization pass.
                           ----------------------------
                           !    Initial Parameters    !
                           ! (Angstroms and Degrees)  !
 --------------------------                            --------------------------
 ! Name  Definition              Value          Derivative Info.                !
 --------------------------------------------------------------------------------
 ! R1    R(1,2)                  1.8326         estimate D2E/DX2                !
 ! R2    R(1,4)                  1.8321         estimate D2E/DX2                !
 ! R3    R(1,6)                  1.8177         estimate D2E/DX2                !
 ! R4    R(1,7)                  2.193          estimate D2E/DX2                !
 ! R5    R(1,13)                 2.0208         estimate D2E/DX2                !
 ! R6    R(1,21)                 2.1973         estimate D2E/DX2                !
 ! R7    R(2,3)                  1.1408         estimate D2E/DX2                !
 ! R8    R(4,5)                  1.141          estimate D2E/DX2                !
 ! R9    R(6,30)                 1.1459         estimate D2E/DX2                !
 ! R10   R(7,10)                 1.3353         estimate D2E/DX2                !
 ! R11   R(7,25)                 1.344          estimate D2E/DX2                !
 ! R12   R(8,9)                  1.3922         estimate D2E/DX2                !
 ! R13   R(8,11)                 1.0912         estimate D2E/DX2                !
 ! R14   R(8,25)                 1.3869         estimate D2E/DX2                !
 ! R15   R(9,12)                 1.093          estimate D2E/DX2                !
 ! R16   R(9,33)                 1.3942         estimate D2E/DX2                !
 ! R17   R(10,33)                1.3959         estimate D2E/DX2                !
 ! R18   R(10,56)                1.0903         estimate D2E/DX2                !
 ! R19   R(13,14)                1.1525         estimate D2E/DX2                !
 ! R20   R(14,15)                1.4351         estimate D2E/DX2                !
 ! R21   R(15,16)                1.4037         estimate D2E/DX2                !
 ! R22   R(15,18)                1.402          estimate D2E/DX2                !
 ! R23   R(16,17)                1.3903         estimate D2E/DX2                !
 ! R24   R(16,19)                1.0925         estimate D2E/DX2                !
 ! R25   R(17,29)                1.0924         estimate D2E/DX2                !
 ! R26   R(17,57)                1.3968         estimate D2E/DX2                !
 ! R27   R(18,20)                1.0966         estimate D2E/DX2                !
 ! R28   R(18,58)                1.3919         estimate D2E/DX2                !
 ! R29   R(21,27)                1.344          estimate D2E/DX2                !
 ! R30   R(21,54)                1.3354         estimate D2E/DX2                !
 ! R31   R(22,23)                1.3922         estimate D2E/DX2                !
 ! R32   R(22,24)                1.0913         estimate D2E/DX2                !
 ! R33   R(22,27)                1.387          estimate D2E/DX2                !
 ! R34   R(23,52)                1.3944         estimate D2E/DX2                !
 ! R35   R(23,53)                1.0931         estimate D2E/DX2                !
 ! R36   R(25,26)                1.0912         estimate D2E/DX2                !
 ! R37   R(26,61)                1.6711         estimate D2E/DX2                !
 ! R38   R(27,28)                1.0913         estimate D2E/DX2                !
 ! R39   R(31,39)                1.7796         estimate D2E/DX2                !
 ! R40   R(31,43)                1.7795         estimate D2E/DX2                !
 ! R41   R(31,63)                1.0469         estimate D2E/DX2                !
 ! R42   R(32,38)                1.7739         estimate D2E/DX2                !
 ! R43   R(32,44)                1.7737         estimate D2E/DX2                !
 ! R44   R(32,62)                0.9825         estimate D2E/DX2                !
 ! R45   R(33,34)                1.4907         estimate D2E/DX2                !
 ! R46   R(34,35)                1.3989         estimate D2E/DX2                !
 ! R47   R(34,39)                1.4081         estimate D2E/DX2                !
 ! R48   R(35,36)                1.3925         estimate D2E/DX2                !
 ! R49   R(35,40)                1.0929         estimate D2E/DX2                !
 ! R50   R(36,37)                1.3916         estimate D2E/DX2                !
 ! R51   R(36,41)                1.0924         estimate D2E/DX2                !
 ! R52   R(37,38)                1.3967         estimate D2E/DX2                !
 ! R53   R(37,42)                1.0928         estimate D2E/DX2                !
 ! R54   R(38,39)                1.4017         estimate D2E/DX2                !
 ! R55   R(43,44)                1.4019         estimate D2E/DX2                !
 ! R56   R(43,48)                1.4084         estimate D2E/DX2                !
 ! R57   R(44,45)                1.3966         estimate D2E/DX2                !
 ! R58   R(45,46)                1.3913         estimate D2E/DX2                !
 ! R59   R(45,49)                1.0928         estimate D2E/DX2                !
 ! R60   R(46,47)                1.3923         estimate D2E/DX2                !
 ! R61   R(46,50)                1.0924         estimate D2E/DX2                !
 ! R62   R(47,48)                1.3994         estimate D2E/DX2                !
 ! R63   R(47,51)                1.0929         estimate D2E/DX2                !
 ! R64   R(48,52)                1.4912         estimate D2E/DX2                !
 ! R65   R(52,54)                1.3965         estimate D2E/DX2                !
 ! R66   R(54,55)                1.0897         estimate D2E/DX2                !
 ! R67   R(57,58)                1.3955         estimate D2E/DX2                !
 ! R68   R(57,60)                1.0932         estimate D2E/DX2                !
 ! R69   R(58,59)                1.0925         estimate D2E/DX2                !
 ! A1    A(2,1,4)               92.3654         estimate D2E/DX2                !
 ! A2    A(2,1,6)               89.0463         estimate D2E/DX2                !
 ! A3    A(2,1,13)              91.9968         estimate D2E/DX2                !
 ! A4    A(2,1,21)              88.4381         estimate D2E/DX2                !
 ! A5    A(4,1,6)               89.6049         estimate D2E/DX2                !
 ! A6    A(4,1,7)               88.584          estimate D2E/DX2                !
 ! A7    A(4,1,13)              91.8805         estimate D2E/DX2                !
 ! A8    A(6,1,7)               93.4757         estimate D2E/DX2                !
 ! A9    A(6,1,21)              93.3538         estimate D2E/DX2                !
 ! A10   A(7,1,13)              85.4574         estimate D2E/DX2                !
 ! A11   A(7,1,21)              90.4854         estimate D2E/DX2                !
 ! A12   A(13,1,21)             85.147          estimate D2E/DX2                !
 ! A13   A(1,7,10)             122.5642         estimate D2E/DX2                !
 ! A14   A(1,7,25)             119.8111         estimate D2E/DX2                !
 ! A15   A(10,7,25)            117.5687         estimate D2E/DX2                !
 ! A16   A(9,8,11)             121.281          estimate D2E/DX2                !
 ! A17   A(9,8,25)             119.1728         estimate D2E/DX2                !
 ! A18   A(11,8,25)            119.5401         estimate D2E/DX2                !
 ! A19   A(8,9,12)             120.8742         estimate D2E/DX2                !
 ! A20   A(8,9,33)             118.6563         estimate D2E/DX2                !
 ! A21   A(12,9,33)            120.4688         estimate D2E/DX2                !
 ! A22   A(7,10,33)            123.8931         estimate D2E/DX2                !
 ! A23   A(7,10,56)            117.5416         estimate D2E/DX2                !
 ! A24   A(33,10,56)           118.5632         estimate D2E/DX2                !
 ! A25   A(14,15,16)           118.7357         estimate D2E/DX2                !
 ! A26   A(14,15,18)           119.9237         estimate D2E/DX2                !
 ! A27   A(16,15,18)           121.336          estimate D2E/DX2                !
 ! A28   A(15,16,17)           119.0589         estimate D2E/DX2                !
 ! A29   A(15,16,19)           120.0569         estimate D2E/DX2                !
 ! A30   A(17,16,19)           120.8842         estimate D2E/DX2                !
 ! A31   A(16,17,29)           119.8036         estimate D2E/DX2                !
 ! A32   A(16,17,57)           119.9899         estimate D2E/DX2                !
 ! A33   A(29,17,57)           120.2065         estimate D2E/DX2                !
 ! A34   A(15,18,20)           118.9494         estimate D2E/DX2                !
 ! A35   A(15,18,58)           118.7497         estimate D2E/DX2                !
 ! A36   A(20,18,58)           122.3001         estimate D2E/DX2                !
 ! A37   A(1,21,27)            119.9387         estimate D2E/DX2                !
 ! A38   A(1,21,54)            122.4338         estimate D2E/DX2                !
 ! A39   A(27,21,54)           117.5714         estimate D2E/DX2                !
 ! A40   A(23,22,24)           121.2895         estimate D2E/DX2                !
 ! A41   A(23,22,27)           119.1707         estimate D2E/DX2                !
 ! A42   A(24,22,27)           119.5364         estimate D2E/DX2                !
 ! A43   A(22,23,52)           118.7093         estimate D2E/DX2                !
 ! A44   A(22,23,53)           120.8728         estimate D2E/DX2                !
 ! A45   A(52,23,53)           120.4178         estimate D2E/DX2                !
 ! A46   A(7,25,8)             122.7864         estimate D2E/DX2                !
 ! A47   A(7,25,26)            116.9979         estimate D2E/DX2                !
 ! A48   A(8,25,26)            120.2155         estimate D2E/DX2                !
 ! A49   A(25,26,61)           151.1527         estimate D2E/DX2                !
 ! A50   A(21,27,22)           122.7732         estimate D2E/DX2                !
 ! A51   A(21,27,28)           117.0857         estimate D2E/DX2                !
 ! A52   A(22,27,28)           120.1408         estimate D2E/DX2                !
 ! A53   A(39,31,43)           101.14           estimate D2E/DX2                !
 ! A54   A(39,31,63)           136.6558         estimate D2E/DX2                !
 ! A55   A(43,31,63)           122.1299         estimate D2E/DX2                !
 ! A56   A(38,32,44)           101.3227         estimate D2E/DX2                !
 ! A57   A(38,32,62)           126.6906         estimate D2E/DX2                !
 ! A58   A(44,32,62)           125.9113         estimate D2E/DX2                !
 ! A59   A(9,33,10)            117.819          estimate D2E/DX2                !
 ! A60   A(9,33,34)            122.4851         estimate D2E/DX2                !
 ! A61   A(10,33,34)           119.6954         estimate D2E/DX2                !
 ! A62   A(33,34,35)           119.6106         estimate D2E/DX2                !
 ! A63   A(33,34,39)           121.4245         estimate D2E/DX2                !
 ! A64   A(35,34,39)           118.9619         estimate D2E/DX2                !
 ! A65   A(34,35,36)           120.8749         estimate D2E/DX2                !
 ! A66   A(34,35,40)           118.9492         estimate D2E/DX2                !
 ! A67   A(36,35,40)           120.1641         estimate D2E/DX2                !
 ! A68   A(35,36,37)           120.1226         estimate D2E/DX2                !
 ! A69   A(35,36,41)           120.0317         estimate D2E/DX2                !
 ! A70   A(37,36,41)           119.8406         estimate D2E/DX2                !
 ! A71   A(36,37,38)           119.76           estimate D2E/DX2                !
 ! A72   A(36,37,42)           120.5252         estimate D2E/DX2                !
 ! A73   A(38,37,42)           119.711          estimate D2E/DX2                !
 ! A74   A(32,38,37)           118.8813         estimate D2E/DX2                !
 ! A75   A(32,38,39)           120.7032         estimate D2E/DX2                !
 ! A76   A(37,38,39)           120.3461         estimate D2E/DX2                !
 ! A77   A(31,39,34)           120.4522         estimate D2E/DX2                !
 ! A78   A(31,39,38)           119.5479         estimate D2E/DX2                !
 ! A79   A(34,39,38)           119.8708         estimate D2E/DX2                !
 ! A80   A(31,43,44)           119.4628         estimate D2E/DX2                !
 ! A81   A(31,43,48)           120.5389         estimate D2E/DX2                !
 ! A82   A(44,43,48)           119.8678         estimate D2E/DX2                !
 ! A83   A(32,44,43)           120.7824         estimate D2E/DX2                !
 ! A84   A(32,44,45)           118.7612         estimate D2E/DX2                !
 ! A85   A(43,44,45)           120.3979         estimate D2E/DX2                !
 ! A86   A(44,45,46)           119.7277         estimate D2E/DX2                !
 ! A87   A(44,45,49)           119.7216         estimate D2E/DX2                !
 ! A88   A(46,45,49)           120.5475         estimate D2E/DX2                !
 ! A89   A(45,46,47)           120.1109         estimate D2E/DX2                !
 ! A90   A(45,46,50)           119.8939         estimate D2E/DX2                !
 ! A91   A(47,46,50)           119.9863         estimate D2E/DX2                !
 ! A92   A(46,47,48)           120.9517         estimate D2E/DX2                !
 ! A93   A(46,47,51)           120.0885         estimate D2E/DX2                !
 ! A94   A(48,47,51)           118.9447         estimate D2E/DX2                !
 ! A95   A(43,48,47)           118.8748         estimate D2E/DX2                !
 ! A96   A(43,48,52)           121.8626         estimate D2E/DX2                !
 ! A97   A(47,48,52)           119.2612         estimate D2E/DX2                !
 ! A98   A(23,52,48)           122.3936         estimate D2E/DX2                !
 ! A99   A(23,52,54)           117.7383         estimate D2E/DX2                !
 ! A100  A(48,52,54)           119.8597         estimate D2E/DX2                !
 ! A101  A(21,54,52)           123.932          estimate D2E/DX2                !
 ! A102  A(21,54,55)           117.5226         estimate D2E/DX2                !
 ! A103  A(52,54,55)           118.5438         estimate D2E/DX2                !
 ! A104  A(17,57,58)           120.5712         estimate D2E/DX2                !
 ! A105  A(17,57,60)           119.679          estimate D2E/DX2                !
 ! A106  A(58,57,60)           119.7497         estimate D2E/DX2                !
 ! A107  A(18,58,57)           120.2942         estimate D2E/DX2                !
 ! A108  A(18,58,59)           119.5672         estimate D2E/DX2                !
 ! A109  A(57,58,59)           120.1384         estimate D2E/DX2                !
 ! A110  L(2,1,7,4,-1)         180.9493         estimate D2E/DX2                !
 ! A111  L(4,1,21,2,-1)        180.8035         estimate D2E/DX2                !
 ! A112  L(6,1,13,2,-1)        181.0431         estimate D2E/DX2                !
 ! A113  L(1,2,3,18,-1)        183.5945         estimate D2E/DX2                !
 ! A114  L(1,4,5,8,-1)         178.6898         estimate D2E/DX2                !
 ! A115  L(1,6,30,10,-1)       182.3851         estimate D2E/DX2                !
 ! A116  L(1,13,14,8,-1)       181.3962         estimate D2E/DX2                !
 ! A117  L(13,14,15,11,-1)     179.2392         estimate D2E/DX2                !
 ! A118  L(2,1,7,4,-2)         182.5157         estimate D2E/DX2                !
 ! A119  L(4,1,21,2,-2)        177.0534         estimate D2E/DX2                !
 ! A120  L(6,1,13,2,-2)        181.5309         estimate D2E/DX2                !
 ! A121  L(1,2,3,18,-2)        177.8266         estimate D2E/DX2                !
 ! A122  L(1,4,5,8,-2)         182.9847         estimate D2E/DX2                !
 ! A123  L(1,6,30,10,-2)       178.3341         estimate D2E/DX2                !
 ! A124  L(1,13,14,8,-2)       179.0866         estimate D2E/DX2                !
 ! A125  L(13,14,15,11,-2)     177.0348         estimate D2E/DX2                !
 ! D1    D(4,1,7,10)           125.1857         estimate D2E/DX2                !
 ! D2    D(4,1,7,25)           -57.6042         estimate D2E/DX2                !
 ! D3    D(6,1,7,10)            35.6677         estimate D2E/DX2                !
 ! D4    D(6,1,7,25)          -147.1222         estimate D2E/DX2                !
 ! D5    D(13,1,7,10)         -142.8147         estimate D2E/DX2                !
 ! D6    D(13,1,7,25)           34.3954         estimate D2E/DX2                !
 ! D7    D(21,1,7,10)          -57.7219         estimate D2E/DX2                !
 ! D8    D(21,1,7,25)          119.4882         estimate D2E/DX2                !
 ! D9    D(2,1,15,16)         -133.3092         estimate D2E/DX2                !
 ! D10   D(2,1,15,18)           44.4486         estimate D2E/DX2                !
 ! D11   D(4,1,15,16)          134.22           estimate D2E/DX2                !
 ! D12   D(4,1,15,18)          -48.0221         estimate D2E/DX2                !
 ! D13   D(7,1,15,16)           45.8921         estimate D2E/DX2                !
 ! D14   D(7,1,15,18)         -136.3501         estimate D2E/DX2                !
 ! D15   D(21,1,15,16)         -45.0718         estimate D2E/DX2                !
 ! D16   D(21,1,15,18)         132.686          estimate D2E/DX2                !
 ! D17   D(2,1,21,27)           56.4208         estimate D2E/DX2                !
 ! D18   D(2,1,21,54)         -126.3703         estimate D2E/DX2                !
 ! D19   D(6,1,21,27)          145.3735         estimate D2E/DX2                !
 ! D20   D(6,1,21,54)          -37.4176         estimate D2E/DX2                !
 ! D21   D(7,1,21,27)         -121.1162         estimate D2E/DX2                !
 ! D22   D(7,1,21,54)           56.0927         estimate D2E/DX2                !
 ! D23   D(13,1,21,27)         -35.7167         estimate D2E/DX2                !
 ! D24   D(13,1,21,54)         141.4922         estimate D2E/DX2                !
 ! D25   D(1,7,10,33)          173.5241         estimate D2E/DX2                !
 ! D26   D(1,7,10,56)           -6.9996         estimate D2E/DX2                !
 ! D27   D(25,7,10,33)          -3.7451         estimate D2E/DX2                !
 ! D28   D(25,7,10,56)         175.7312         estimate D2E/DX2                !
 ! D29   D(1,7,25,8)          -175.7599         estimate D2E/DX2                !
 ! D30   D(1,7,25,26)            4.3867         estimate D2E/DX2                !
 ! D31   D(10,7,25,8)            1.5877         estimate D2E/DX2                !
 ! D32   D(10,7,25,26)        -178.2656         estimate D2E/DX2                !
 ! D33   D(11,8,9,12)           -0.9612         estimate D2E/DX2                !
 ! D34   D(11,8,9,33)          179.3383         estimate D2E/DX2                !
 ! D35   D(25,8,9,12)          178.1435         estimate D2E/DX2                !
 ! D36   D(25,8,9,33)           -1.5569         estimate D2E/DX2                !
 ! D37   D(9,8,25,7)             1.0082         estimate D2E/DX2                !
 ! D38   D(9,8,25,26)         -179.143          estimate D2E/DX2                !
 ! D39   D(11,8,25,7)         -179.8713         estimate D2E/DX2                !
 ! D40   D(11,8,25,26)          -0.0225         estimate D2E/DX2                !
 ! D41   D(8,9,33,10)           -0.3821         estimate D2E/DX2                !
 ! D42   D(8,9,33,34)          179.8681         estimate D2E/DX2                !
 ! D43   D(12,9,33,10)         179.9162         estimate D2E/DX2                !
 ! D44   D(12,9,33,34)           0.1664         estimate D2E/DX2                !
 ! D45   D(7,10,33,9)            3.1718         estimate D2E/DX2                !
 ! D46   D(7,10,33,34)        -177.0711         estimate D2E/DX2                !
 ! D47   D(56,10,33,9)        -176.2995         estimate D2E/DX2                !
 ! D48   D(56,10,33,34)          3.4576         estimate D2E/DX2                !
 ! D49   D(14,15,16,17)        179.1263         estimate D2E/DX2                !
 ! D50   D(14,15,16,19)         -0.8315         estimate D2E/DX2                !
 ! D51   D(18,15,16,17)         -0.0917         estimate D2E/DX2                !
 ! D52   D(18,15,16,19)        179.9504         estimate D2E/DX2                !
 ! D53   D(14,15,18,20)          0.5317         estimate D2E/DX2                !
 ! D54   D(14,15,18,58)       -179.1344         estimate D2E/DX2                !
 ! D55   D(16,15,18,20)        179.7406         estimate D2E/DX2                !
 ! D56   D(16,15,18,58)          0.0744         estimate D2E/DX2                !
 ! D57   D(15,16,17,29)       -179.9636         estimate D2E/DX2                !
 ! D58   D(15,16,17,57)          0.0093         estimate D2E/DX2                !
 ! D59   D(19,16,17,29)         -0.0061         estimate D2E/DX2                !
 ! D60   D(19,16,17,57)        179.9668         estimate D2E/DX2                !
 ! D61   D(16,17,57,58)          0.0891         estimate D2E/DX2                !
 ! D62   D(16,17,57,60)       -179.8297         estimate D2E/DX2                !
 ! D63   D(29,17,57,58)       -179.9381         estimate D2E/DX2                !
 ! D64   D(29,17,57,60)          0.1431         estimate D2E/DX2                !
 ! D65   D(15,18,58,57)          0.025          estimate D2E/DX2                !
 ! D66   D(15,18,58,59)        179.8423         estimate D2E/DX2                !
 ! D67   D(20,18,58,57)       -179.6293         estimate D2E/DX2                !
 ! D68   D(20,18,58,59)          0.1879         estimate D2E/DX2                !
 ! D69   D(1,21,27,22)         175.63           estimate D2E/DX2                !
 ! D70   D(1,21,27,28)          -4.545          estimate D2E/DX2                !
 ! D71   D(54,21,27,22)         -1.7126         estimate D2E/DX2                !
 ! D72   D(54,21,27,28)        178.1124         estimate D2E/DX2                !
 ! D73   D(1,21,54,52)        -173.4689         estimate D2E/DX2                !
 ! D74   D(1,21,54,55)           6.9967         estimate D2E/DX2                !
 ! D75   D(27,21,54,52)          3.8026         estimate D2E/DX2                !
 ! D76   D(27,21,54,55)       -175.7317         estimate D2E/DX2                !
 ! D77   D(24,22,23,52)       -179.06           estimate D2E/DX2                !
 ! D78   D(24,22,23,53)          1.0482         estimate D2E/DX2                !
 ! D79   D(27,22,23,52)          1.6184         estimate D2E/DX2                !
 ! D80   D(27,22,23,53)       -178.2734         estimate D2E/DX2                !
 ! D81   D(23,22,27,21)         -0.9402         estimate D2E/DX2                !
 ! D82   D(23,22,27,28)        179.2399         estimate D2E/DX2                !
 ! D83   D(24,22,27,21)        179.7261         estimate D2E/DX2                !
 ! D84   D(24,22,27,28)         -0.0938         estimate D2E/DX2                !
 ! D85   D(22,23,52,48)        179.1958         estimate D2E/DX2                !
 ! D86   D(22,23,52,54)          0.2571         estimate D2E/DX2                !
 ! D87   D(53,23,52,48)         -0.9119         estimate D2E/DX2                !
 ! D88   D(53,23,52,54)       -179.8506         estimate D2E/DX2                !
 ! D89   D(7,25,26,61)         161.3513         estimate D2E/DX2                !
 ! D90   D(8,25,26,61)         -18.506          estimate D2E/DX2                !
 ! D91   D(43,31,39,34)       -137.9859         estimate D2E/DX2                !
 ! D92   D(43,31,39,38)         46.1487         estimate D2E/DX2                !
 ! D93   D(63,31,39,34)         38.7417         estimate D2E/DX2                !
 ! D94   D(63,31,39,38)       -137.1237         estimate D2E/DX2                !
 ! D95   D(39,31,43,44)        -46.3291         estimate D2E/DX2                !
 ! D96   D(39,31,43,48)        137.828          estimate D2E/DX2                !
 ! D97   D(63,31,43,44)        136.3227         estimate D2E/DX2                !
 ! D98   D(63,31,43,48)        -39.5201         estimate D2E/DX2                !
 ! D99   D(44,32,38,37)        139.1572         estimate D2E/DX2                !
 ! D100  D(44,32,38,39)        -43.8595         estimate D2E/DX2                !
 ! D101  D(62,32,38,37)        -14.3729         estimate D2E/DX2                !
 ! D102  D(62,32,38,39)        162.6103         estimate D2E/DX2                !
 ! D103  D(38,32,44,43)         43.6728         estimate D2E/DX2                !
 ! D104  D(38,32,44,45)       -139.0991         estimate D2E/DX2                !
 ! D105  D(62,32,44,43)       -162.5138         estimate D2E/DX2                !
 ! D106  D(62,32,44,45)         14.7143         estimate D2E/DX2                !
 ! D107  D(9,33,34,35)          63.627          estimate D2E/DX2                !
 ! D108  D(9,33,34,39)        -115.7414         estimate D2E/DX2                !
 ! D109  D(10,33,34,35)       -116.1183         estimate D2E/DX2                !
 ! D110  D(10,33,34,39)         64.5133         estimate D2E/DX2                !
 ! D111  D(33,34,35,36)        178.5785         estimate D2E/DX2                !
 ! D112  D(33,34,35,40)         -0.1754         estimate D2E/DX2                !
 ! D113  D(39,34,35,36)         -2.0375         estimate D2E/DX2                !
 ! D114  D(39,34,35,40)        179.2086         estimate D2E/DX2                !
 ! D115  D(33,34,39,31)          5.5879         estimate D2E/DX2                !
 ! D116  D(33,34,39,38)       -178.56           estimate D2E/DX2                !
 ! D117  D(35,34,39,31)       -173.7845         estimate D2E/DX2                !
 ! D118  D(35,34,39,38)          2.0676         estimate D2E/DX2                !
 ! D119  D(34,35,36,37)         -0.0222         estimate D2E/DX2                !
 ! D120  D(34,35,36,41)       -179.1979         estimate D2E/DX2                !
 ! D121  D(40,35,36,37)        178.7167         estimate D2E/DX2                !
 ! D122  D(40,35,36,41)         -0.4591         estimate D2E/DX2                !
 ! D123  D(35,36,37,38)          2.0578         estimate D2E/DX2                !
 ! D124  D(35,36,37,42)       -178.6508         estimate D2E/DX2                !
 ! D125  D(41,36,37,38)       -178.7648         estimate D2E/DX2                !
 ! D126  D(41,36,37,42)          0.5265         estimate D2E/DX2                !
 ! D127  D(36,37,38,32)        174.9832         estimate D2E/DX2                !
 ! D128  D(36,37,38,39)         -2.0111         estimate D2E/DX2                !
 ! D129  D(42,37,38,32)         -4.3139         estimate D2E/DX2                !
 ! D130  D(42,37,38,39)        178.6918         estimate D2E/DX2                !
 ! D131  D(32,38,39,31)         -1.114          estimate D2E/DX2                !
 ! D132  D(32,38,39,34)       -177.0038         estimate D2E/DX2                !
 ! D133  D(37,38,39,31)        175.825          estimate D2E/DX2                !
 ! D134  D(37,38,39,34)         -0.0647         estimate D2E/DX2                !
 ! D135  D(31,43,44,32)          1.4802         estimate D2E/DX2                !
 ! D136  D(31,43,44,45)       -175.7025         estimate D2E/DX2                !
 ! D137  D(48,43,44,32)        177.3513         estimate D2E/DX2                !
 ! D138  D(48,43,44,45)          0.1686         estimate D2E/DX2                !
 ! D139  D(31,43,48,47)        173.5909         estimate D2E/DX2                !
 ! D140  D(31,43,48,52)         -5.9828         estimate D2E/DX2                !
 ! D141  D(44,43,48,47)         -2.2351         estimate D2E/DX2                !
 ! D142  D(44,43,48,52)        178.1911         estimate D2E/DX2                !
 ! D143  D(32,44,45,46)       -175.2248         estimate D2E/DX2                !
 ! D144  D(32,44,45,49)          4.125          estimate D2E/DX2                !
 ! D145  D(43,44,45,46)          2.0142         estimate D2E/DX2                !
 ! D146  D(43,44,45,49)       -178.636          estimate D2E/DX2                !
 ! D147  D(44,45,46,47)         -2.0989         estimate D2E/DX2                !
 ! D148  D(44,45,46,50)        178.9865         estimate D2E/DX2                !
 ! D149  D(49,45,46,47)        178.5567         estimate D2E/DX2                !
 ! D150  D(49,45,46,50)         -0.3578         estimate D2E/DX2                !
 ! D151  D(45,46,47,48)         -0.0052         estimate D2E/DX2                !
 ! D152  D(45,46,47,51)       -178.5791         estimate D2E/DX2                !
 ! D153  D(50,46,47,48)        178.9083         estimate D2E/DX2                !
 ! D154  D(50,46,47,51)          0.3345         estimate D2E/DX2                !
 ! D155  D(46,47,48,43)          2.1691         estimate D2E/DX2                !
 ! D156  D(46,47,48,52)       -178.2459         estimate D2E/DX2                !
 ! D157  D(51,47,48,43)       -179.2411         estimate D2E/DX2                !
 ! D158  D(51,47,48,52)          0.344          estimate D2E/DX2                !
 ! D159  D(43,48,52,23)        118.0833         estimate D2E/DX2                !
 ! D160  D(43,48,52,54)        -62.9999         estimate D2E/DX2                !
 ! D161  D(47,48,52,23)        -61.4889         estimate D2E/DX2                !
 ! D162  D(47,48,52,54)        117.428          estimate D2E/DX2                !
 ! D163  D(23,52,54,21)         -3.1034         estimate D2E/DX2                !
 ! D164  D(23,52,54,55)        176.4265         estimate D2E/DX2                !
 ! D165  D(48,52,54,21)        177.9299         estimate D2E/DX2                !
 ! D166  D(48,52,54,55)         -2.5402         estimate D2E/DX2                !
 ! D167  D(17,57,58,18)         -0.1068         estimate D2E/DX2                !
 ! D168  D(17,57,58,59)       -179.923          estimate D2E/DX2                !
 ! D169  D(60,57,58,18)        179.8119         estimate D2E/DX2                !
 ! D170  D(60,57,58,59)         -0.0043         estimate D2E/DX2                !
 --------------------------------------------------------------------------------
 Trust Radius=3.00D-01 FncErr=1.00D-07 GrdErr=1.00D-06 EigMax=2.50D+02 EigMin=1.00D-04
 Number of steps in this run=    374 maximum allowed number of steps=    378.
 GradGradGradGradGradGradGradGradGradGradGradGradGradGradGradGradGradGrad

 Stoichiometry    C34H21BrMnN3O3
 Framework group  C1[X(C34H21BrMnN3O3)]
 Deg. of freedom   183
 Full point group                 C1      NOp   1
 Largest Abelian subgroup         C1      NOp   1
 Largest concise Abelian subgroup C1      NOp   1
                         Standard orientation:                         
 ---------------------------------------------------------------------
 Center     Atomic      Atomic             Coordinates (Angstroms)
 Number     Number       Type             X           Y           Z
 ---------------------------------------------------------------------
      1         25           0       -1.109586   -0.341435    1.885046
      2          6           0       -1.798428   -1.709261    2.891516
      3          8           0       -2.149316   -2.581401    3.537745
      4          6           0       -2.128246    0.910609    2.751754
      5          8           0       -2.710289    1.725104    3.299204
      6          6           0        0.196092   -0.123013    3.130602
      7          7           0       -0.335610    1.257618    0.599280
      8          6           0       -0.761261    2.972539   -1.021466
      9          6           0        0.603979    3.175549   -1.203332
     10          6           0        0.970414    1.496385    0.456538
     11          1           0       -1.499381    3.549830   -1.580656
     12          1           0        0.970579    3.910193   -1.924848
     13          7           0       -2.514998   -0.591785    0.454718
     14          6           0       -3.313399   -0.767679   -0.357636
     15          6           0       -4.252268   -1.002701   -1.417325
     16          6           0       -3.782939   -1.035583   -2.739790
     17          6           0       -4.683637   -1.280986   -3.770087
     18          6           0       -5.606325   -1.209953   -1.118844
     19          1           0       -2.723401   -0.870456   -2.948651
     20          1           0       -5.929589   -1.180000   -0.071418
     21          7           0        0.040349   -1.833302    0.753632
     22          6           0        0.060603   -3.771960   -0.656871
     23          6           0        1.431357   -3.640455   -0.861437
     24          1           0       -0.507116   -4.579075   -1.122832
     25          6           0       -1.187188    2.004048   -0.124671
     26          1           0       -2.253087    1.821068    0.020798
     27          6           0       -0.595005   -2.848856    0.144343
     28          1           0       -1.671347   -2.929672    0.305365
     29          1           0       -4.331461   -1.309849   -4.803788
     30          8           0        0.979162    0.011885    3.956222
     31          6           0        3.035812    0.006501   -1.652121
     32          6           0        6.195579    0.382896   -1.794467
     33          6           0        1.498921    2.417153   -0.449840
     34          6           0        2.977008    2.562380   -0.577797
     35          6           0        3.584619    3.775003   -0.235301
     36          6           0        4.966019    3.930150   -0.316690
     37          6           0        5.763696    2.872365   -0.742481
     38          6           0        5.170381    1.668498   -1.129007
     39          6           0        3.780271    1.506713   -1.050241
     40          1           0        2.959442    4.598478    0.118954
     41          1           0        5.427230    4.878955   -0.033342
     42          1           0        6.850222    2.979805   -0.787877
     43          6           0        4.109144   -1.220357   -0.938321
     44          6           0        5.498580   -1.053449   -1.021674
     45          6           0        6.359255   -2.046200   -0.548233
     46          6           0        5.833428   -3.225157   -0.029289
     47          6           0        4.454421   -3.396005    0.057910
     48          6           0        3.576533   -2.394105   -0.370782
     49          1           0        7.440336   -1.894969   -0.598275
     50          1           0        6.504411   -4.010310    0.326485
     51          1           0        4.041930   -4.312608    0.486990
     52          6           0        2.107054   -2.600712   -0.223718
     53          1           0        1.970903   -4.335508   -1.509969
     54          6           0        1.363446   -1.747682    0.594586
     55          1           0        1.887385   -0.967206    1.145674
     56          1           0        1.657255    0.940835    1.095511
     57          6           0       -6.034236   -1.490262   -3.481698
     58          6           0       -6.492607   -1.453795   -2.164104
     59          1           0       -7.550324   -1.619707   -1.946474
     60          1           0       -6.737522   -1.685559   -4.295474
     61         35           0       -3.850636    2.293725   -0.110070
     62          1           0        7.121021    0.474932   -2.111445
     63          1           0        2.193352   -0.251810   -2.217350
 ---------------------------------------------------------------------
 Rotational constants (GHZ):           0.1043304           0.0498769           0.0453712
 General basis read from cards:  (5D, 7F)
 There are   802 symmetry adapted cartesian basis functions of A   symmetry.
 There are   751 symmetry adapted basis functions of A   symmetry.
   751 basis functions,  1339 primitive gaussians,   802 cartesian basis functions
   165 alpha electrons      165 beta electrons
       nuclear repulsion energy      5948.0802896007 Hartrees.
 NAtoms=   63 NActive=   63 NUniq=   63 SFac= 1.00D+00 NAtFMM=   60 NAOKFM=T Big=T
 Integral buffers will be    131072 words long.
 Raffenetti 2 integral format.
 Two-electron integral symmetry is turned on.
 Nuclear repulsion after empirical dispersion term =     5948.0168650830 Hartrees.
 ------------------------------------------------------------------------------
 Polarizable Continuum Model (PCM)
 =================================
 Model                : PCM.
 Atomic radii         : UFF (Universal Force Field).
 Polarization charges : Total charges.
 Charge compensation  : None.
 Solution method      : On-the-fly selection.
 Cavity type          : Scaled VdW (van der Waals Surface) (Alpha=1.100).
 Cavity algorithm     : GePol (No added spheres)
                        Default sphere list used, NSphG=   63.
                        Lebedev-Laikov grids with approx.  5.0 points / Ang**2.
                        Smoothing algorithm: York/Karplus (Gamma=1.0000).
                        Polarization charges: spherical gaussians, with
                                              point-specific exponents (IZeta= 3).
                        Self-potential: point-specific (ISelfS= 7).
                        Self-field    : sphere-specific E.n sum rule (ISelfD= 2).
 1st derivatives      : Analytical E(r).r(x)/FMM algorithm (CHGder, D1EAlg=3).
                        Cavity 1st derivative terms included.
 Solvent              : TetraHydroFuran, Eps=   7.425700 Eps(inf)=   1.974025
 ------------------------------------------------------------------------------
 One-electron integrals computed using PRISM.
 PrsmSu:  requested number of processors reduced to:  11 ShMem   1 Linda.
 NBasis=   751 RedAO= T EigKep=  2.45D-04  NBF=   751
 NBsUse=   751 1.00D-06 EigRej= -1.00D+00 NBFU=   751
 ExpMin= 3.93D-02 ExpMax= 2.77D+05 ExpMxC= 1.70D+04 IAcc=3 IRadAn=         5 AccDes= 0.00D+00
 Harris functional with IExCor= 4639 and IRadAn=       5 diagonalized for initial guess.
 HarFok:  IExCor= 4639 AccDes= 0.00D+00 IRadAn=         5 IDoV= 1 UseB2=F ITyADJ=14
 ICtDFT=  3500011 ScaDFX=  1.000000  1.000000  1.000000  1.000000
 FoFCou: FMM=F IPFlag=           0 FMFlag=      100000 FMFlg1=        2001
         NFxFlg=           0 DoJE=T BraDBF=F KetDBF=T FulRan=T
         wScrn=  0.000000 ICntrl=       500 IOpCl=  0 I1Cent=   200000004 NGrid=           0
         NMat0=    1 NMatS0=      1 NMatT0=    0 NMatD0=    1 NMtDS0=    0 NMtDT0=    0
 Petite list used in FoFCou.
 Requested convergence on RMS density matrix=1.00D-08 within 128 cycles.
 Requested convergence on MAX density matrix=1.00D-06.
 Requested convergence on             energy=1.00D-06.
 No special actions if energy rises.
 CoulSu:  requested number of processors reduced to:   9 ShMem   1 Linda.
 Inv3:  Mode=1 IEnd=    69726123.
 Iteration    1 A*A^-1 deviation from unit magnitude is 3.22D-15 for   1887.
 Iteration    1 A*A^-1 deviation from orthogonality  is 2.44D-15 for   3256   1154.
 Iteration    1 A^-1*A deviation from unit magnitude is 3.11D-15 for   3850.
 Iteration    1 A^-1*A deviation from orthogonality  is 5.27D-15 for   2301   2269.
 CoulSu:  requested number of processors reduced to:   9 ShMem   1 Linda.
 CoulSu:  requested number of processors reduced to:   9 ShMem   1 Linda.
 Error on total polarization charges =  0.01888
 SCF Done:  E(RwB97XD) =  -5421.09645411     A.U. after   20 cycles
            NFock= 20  Conv=0.36D-08     -V/T= 2.0042

 **********************************************************************

            Population analysis using the SCF density.

 **********************************************************************

 Orbital symmetries:
       Occupied  (A) (A) (A) (A) (A) (A) (A) (A) (A) (A) (A) (A)
                 (A) (A) (A) (A) (A) (A) (A) (A) (A) (A) (A) (A)
                 (A) (A) (A) (A) (A) (A) (A) (A) (A) (A) (A) (A)
                 (A) (A) (A) (A) (A) (A) (A) (A) (A) (A) (A) (A)
                 (A) (A) (A) (A) (A) (A) (A) (A) (A) (A) (A) (A)
                 (A) (A) (A) (A) (A) (A) (A) (A) (A) (A) (A) (A)
                 (A) (A) (A) (A) (A) (A) (A) (A) (A) (A) (A) (A)
                 (A) (A) (A) (A) (A) (A) (A) (A) (A) (A) (A) (A)
                 (A) (A) (A) (A) (A) (A) (A) (A) (A) (A) (A) (A)
                 (A) (A) (A) (A) (A) (A) (A) (A) (A) (A) (A) (A)
                 (A) (A) (A) (A) (A) (A) (A) (A) (A) (A) (A) (A)
                 (A) (A) (A) (A) (A) (A) (A) (A) (A) (A) (A) (A)
                 (A) (A) (A) (A) (A) (A) (A) (A) (A) (A) (A) (A)
                 (A) (A) (A) (A) (A) (A) (A) (A) (A)
       Virtual   (A) (A) (A) (A) (A) (A) (A) (A) (A) (A) (A) (A)
                 (A) (A) (A) (A) (A) (A) (A) (A) (A) (A) (A) (A)
                 (A) (A) (A) (A) (A) (A) (A) (A) (A) (A) (A) (A)
                 (A) (A) (A) (A) (A) (A) (A) (A) (A) (A) (A) (A)
                 (A) (A) (A) (A) (A) (A) (A) (A) (A) (A) (A) (A)
                 (A) (A) (A) (A) (A) (A) (A) (A) (A) (A) (A) (A)
                 (A) (A) (A) (A) (A) (A) (A) (A) (A) (A) (A) (A)
                 (A) (A) (A) (A) (A) (A) (A) (A) (A) (A) (A) (A)
                 (A) (A) (A) (A) (A) (A) (A) (A) (A) (A) (A) (A)
                 (A) (A) (A) (A) (A) (A) (A) (A) (A) (A) (A) (A)
                 (A) (A) (A) (A) (A) (A) (A) (A) (A) (A) (A) (A)
                 (A) (A) (A) (A) (A) (A) (A) (A) (A) (A) (A) (A)
                 (A) (A) (A) (A) (A) (A) (A) (A) (A) (A) (A) (A)
                 (A) (A) (A) (A) (A) (A) (A) (A) (A) (A) (A) (A)
                 (A) (A) (A) (A) (A) (A) (A) (A) (A) (A) (A) (A)
                 (A) (A) (A) (A) (A) (A) (A) (A) (A) (A) (A) (A)
                 (A) (A) (A) (A) (A) (A) (A) (A) (A) (A) (A) (A)
                 (A) (A) (A) (A) (A) (A) (A) (A) (A) (A) (A) (A)
                 (A) (A) (A) (A) (A) (A) (A) (A) (A) (A) (A) (A)
                 (A) (A) (A) (A) (A) (A) (A) (A) (A) (A) (A) (A)
                 (A) (A) (A) (A) (A) (A) (A) (A) (A) (A) (A) (A)
                 (A) (A) (A) (A) (A) (A) (A) (A) (A) (A) (A) (A)
                 (A) (A) (A) (A) (A) (A) (A) (A) (A) (A) (A) (A)
                 (A) (A) (A) (A) (A) (A) (A) (A) (A) (A) (A) (A)
                 (A) (A) (A) (A) (A) (A) (A) (A) (A) (A) (A) (A)
                 (A) (A) (A) (A) (A) (A) (A) (A) (A) (A) (A) (A)
                 (A) (A) (A) (A) (A) (A) (A) (A) (A) (A) (A) (A)
                 (A) (A) (A) (A) (A) (A) (A) (A) (A) (A) (A) (A)
                 (A) (A) (A) (A) (A) (A) (A) (A) (A) (A) (A) (A)
                 (A) (A) (A) (A) (A) (A) (A) (A) (A) (A) (A) (A)
                 (A) (A) (A) (A) (A) (A) (A) (A) (A) (A) (A) (A)
                 (A) (A) (A) (A) (A) (A) (A) (A) (A) (A) (A) (A)
                 (A) (A) (A) (A) (A) (A) (A) (A) (A) (A) (A) (A)
                 (A) (A) (A) (A) (A) (A) (A) (A) (A) (A) (A) (A)
                 (A) (A) (A) (A) (A) (A) (A) (A) (A) (A) (A) (A)
                 (A) (A) (A) (A) (A) (A) (A) (A) (A) (A) (A) (A)
                 (A) (A) (A) (A) (A) (A) (A) (A) (A) (A) (A) (A)
                 (A) (A) (A) (A) (A) (A) (A) (A) (A) (A) (A) (A)
                 (A) (A) (A) (A) (A) (A) (A) (A) (A) (A) (A) (A)
                 (A) (A) (A) (A) (A) (A) (A) (A) (A) (A) (A) (A)
                 (A) (A) (A) (A) (A) (A) (A) (A) (A) (A) (A) (A)
                 (A) (A) (A) (A) (A) (A) (A) (A) (A) (A) (A) (A)
                 (A) (A) (A) (A) (A) (A) (A) (A) (A) (A) (A) (A)
                 (A) (A) (A) (A) (A) (A) (A) (A) (A) (A) (A) (A)
                 (A) (A) (A) (A) (A) (A) (A) (A) (A) (A) (A) (A)
                 (A) (A) (A) (A) (A) (A) (A) (A) (A) (A) (A) (A)
                 (A) (A) (A) (A) (A) (A) (A) (A) (A) (A) (A) (A)
                 (A) (A) (A) (A) (A) (A) (A) (A) (A) (A) (A) (A)
                 (A) (A) (A) (A) (A) (A) (A) (A) (A) (A)
 The electronic state is 1-A.
 Alpha  occ. eigenvalues -- -482.95271-235.70387 -62.53476 -56.34016 -56.34009
 Alpha  occ. eigenvalues --  -56.34002 -27.47413 -23.53228 -23.52983 -23.52936
 Alpha  occ. eigenvalues --  -19.34570 -19.34366 -19.34040 -14.50522 -14.48968
 Alpha  occ. eigenvalues --  -14.48473 -10.42037 -10.41878 -10.41673 -10.38441
 Alpha  occ. eigenvalues --  -10.37908 -10.36860 -10.36553 -10.36156 -10.36010
 Alpha  occ. eigenvalues --  -10.35726 -10.35497 -10.35321 -10.35306 -10.35226
 Alpha  occ. eigenvalues --  -10.34493 -10.34445 -10.33588 -10.33511 -10.33476
 Alpha  occ. eigenvalues --  -10.33403 -10.33249 -10.32933 -10.32887 -10.32689
 Alpha  occ. eigenvalues --  -10.32377 -10.32348 -10.32135 -10.32039 -10.31886
 Alpha  occ. eigenvalues --  -10.31807 -10.31793 -10.31668 -10.31055 -10.31003
 Alpha  occ. eigenvalues --   -8.70398  -6.52135  -6.52064  -6.52027  -3.26574
 Alpha  occ. eigenvalues --   -2.62666  -2.62633  -2.62605  -2.62553  -2.62550
 Alpha  occ. eigenvalues --   -2.12162  -2.11604  -2.11516  -1.23660  -1.23222
 Alpha  occ. eigenvalues --   -1.23006  -1.08192  -1.06061  -1.04426  -0.98221
 Alpha  occ. eigenvalues --   -0.98109  -0.97590  -0.93395  -0.92046  -0.89851
 Alpha  occ. eigenvalues --   -0.88402  -0.88206  -0.87203  -0.86463  -0.85040
 Alpha  occ. eigenvalues --   -0.84595  -0.84109  -0.78305  -0.77207  -0.75801
 Alpha  occ. eigenvalues --   -0.75135  -0.75017  -0.74481  -0.73722  -0.72810
 Alpha  occ. eigenvalues --   -0.72103  -0.69759  -0.69702  -0.68545  -0.68194
 Alpha  occ. eigenvalues --   -0.66836  -0.65863  -0.65193  -0.64855  -0.64588
 Alpha  occ. eigenvalues --   -0.62685  -0.61393  -0.60562  -0.60130  -0.59744
 Alpha  occ. eigenvalues --   -0.58946  -0.58576  -0.57477  -0.57207  -0.56954
 Alpha  occ. eigenvalues --   -0.56729  -0.56626  -0.56357  -0.56169  -0.55786
 Alpha  occ. eigenvalues --   -0.55185  -0.54964  -0.54472  -0.54303  -0.54129
 Alpha  occ. eigenvalues --   -0.53808  -0.53087  -0.53071  -0.52591  -0.52143
 Alpha  occ. eigenvalues --   -0.52106  -0.51752  -0.51615  -0.51430  -0.50586
 Alpha  occ. eigenvalues --   -0.50573  -0.50338  -0.50046  -0.49047  -0.48688
 Alpha  occ. eigenvalues --   -0.47992  -0.47418  -0.47374  -0.46711  -0.46087
 Alpha  occ. eigenvalues --   -0.45944  -0.45799  -0.44666  -0.44511  -0.42543
 Alpha  occ. eigenvalues --   -0.41771  -0.40575  -0.40031  -0.38870  -0.38774
 Alpha  occ. eigenvalues --   -0.38017  -0.37071  -0.36079  -0.35938  -0.35651
 Alpha  occ. eigenvalues --   -0.35095  -0.33382  -0.33244  -0.32433  -0.32021
 Alpha  occ. eigenvalues --   -0.31911  -0.30414  -0.30010  -0.26452  -0.24564
 Alpha virt. eigenvalues --   -0.08157  -0.00287   0.00430   0.01325   0.02151
 Alpha virt. eigenvalues --    0.03216   0.03657   0.03889   0.04523   0.04841
 Alpha virt. eigenvalues --    0.05018   0.05466   0.06045   0.06341   0.07008
 Alpha virt. eigenvalues --    0.07362   0.08431   0.08997   0.10137   0.10348
 Alpha virt. eigenvalues --    0.11071   0.11298   0.11798   0.12315   0.13147
 Alpha virt. eigenvalues --    0.13563   0.13768   0.14991   0.15419   0.15844
 Alpha virt. eigenvalues --    0.15956   0.16751   0.17134   0.17492   0.17956
 Alpha virt. eigenvalues --    0.18276   0.18600   0.18854   0.19142   0.19728
 Alpha virt. eigenvalues --    0.19999   0.20858   0.21084   0.21298   0.21815
 Alpha virt. eigenvalues --    0.22205   0.22648   0.22878   0.23396   0.23454
 Alpha virt. eigenvalues --    0.23997   0.24487   0.24751   0.25998   0.26449
 Alpha virt. eigenvalues --    0.26836   0.27209   0.27679   0.28372   0.28783
 Alpha virt. eigenvalues --    0.29248   0.29760   0.30995   0.31371   0.31688
 Alpha virt. eigenvalues --    0.32156   0.32425   0.33128   0.33457   0.33968
 Alpha virt. eigenvalues --    0.34556   0.34884   0.34999   0.35179   0.35853
 Alpha virt. eigenvalues --    0.36361   0.36530   0.36996   0.37370   0.38027
 Alpha virt. eigenvalues --    0.38305   0.38684   0.38953   0.39667   0.39854
 Alpha virt. eigenvalues --    0.40240   0.40799   0.41330   0.41642   0.41839
 Alpha virt. eigenvalues --    0.42990   0.43344   0.43532   0.44232   0.44667
 Alpha virt. eigenvalues --    0.45037   0.45731   0.46508   0.46819   0.47540
 Alpha virt. eigenvalues --    0.47836   0.48260   0.48542   0.48832   0.49647
 Alpha virt. eigenvalues --    0.49752   0.50181   0.50221   0.51051   0.51403
 Alpha virt. eigenvalues --    0.51587   0.51861   0.51914   0.52675   0.53009
 Alpha virt. eigenvalues --    0.53240   0.53587   0.54125   0.54370   0.54656
 Alpha virt. eigenvalues --    0.54833   0.54996   0.55381   0.55570   0.55976
 Alpha virt. eigenvalues --    0.56428   0.56600   0.56804   0.57297   0.57977
 Alpha virt. eigenvalues --    0.58108   0.58506   0.58910   0.59690   0.60039
 Alpha virt. eigenvalues --    0.60746   0.61662   0.61976   0.62228   0.62821
 Alpha virt. eigenvalues --    0.63336   0.63683   0.64234   0.64631   0.65091
 Alpha virt. eigenvalues --    0.65299   0.65818   0.66027   0.66331   0.66696
 Alpha virt. eigenvalues --    0.67215   0.68011   0.68210   0.68463   0.68769
 Alpha virt. eigenvalues --    0.69162   0.69472   0.69673   0.69937   0.70654
 Alpha virt. eigenvalues --    0.71069   0.71524   0.71708   0.72118   0.72252
 Alpha virt. eigenvalues --    0.72721   0.72767   0.73156   0.73308   0.73648
 Alpha virt. eigenvalues --    0.73688   0.73752   0.74305   0.74573   0.74640
 Alpha virt. eigenvalues --    0.74936   0.75407   0.75862   0.76246   0.76315
 Alpha virt. eigenvalues --    0.76571   0.76891   0.77305   0.77595   0.77746
 Alpha virt. eigenvalues --    0.78093   0.78420   0.78751   0.79282   0.79531
 Alpha virt. eigenvalues --    0.79775   0.80288   0.80434   0.80647   0.80895
 Alpha virt. eigenvalues --    0.81368   0.81822   0.82164   0.82363   0.82877
 Alpha virt. eigenvalues --    0.83129   0.83459   0.83630   0.83826   0.84014
 Alpha virt. eigenvalues --    0.84509   0.84957   0.85333   0.85584   0.85850
 Alpha virt. eigenvalues --    0.86098   0.86701   0.87187   0.87395   0.87995
 Alpha virt. eigenvalues --    0.88094   0.88724   0.88893   0.89138   0.89962
 Alpha virt. eigenvalues --    0.90172   0.90821   0.91385   0.91688   0.92456
 Alpha virt. eigenvalues --    0.92595   0.92935   0.93584   0.94887   0.95339
 Alpha virt. eigenvalues --    0.96043   0.96332   0.97346   0.97717   0.98465
 Alpha virt. eigenvalues --    0.99241   0.99505   0.99843   1.00572   1.01388
 Alpha virt. eigenvalues --    1.01603   1.02712   1.03555   1.03629   1.05555
 Alpha virt. eigenvalues --    1.05653   1.06548   1.07503   1.08052   1.08645
 Alpha virt. eigenvalues --    1.09582   1.10071   1.10500   1.12384   1.12578
 Alpha virt. eigenvalues --    1.13053   1.13163   1.14348   1.14768   1.15334
 Alpha virt. eigenvalues --    1.15712   1.16720   1.17429   1.17722   1.18330
 Alpha virt. eigenvalues --    1.18756   1.19879   1.21591   1.22091   1.23508
 Alpha virt. eigenvalues --    1.23668   1.24401   1.25290   1.26800   1.27296
 Alpha virt. eigenvalues --    1.27635   1.28205   1.28624   1.29035   1.29529
 Alpha virt. eigenvalues --    1.29841   1.30159   1.30650   1.30998   1.31556
 Alpha virt. eigenvalues --    1.31942   1.32368   1.32886   1.33221   1.33524
 Alpha virt. eigenvalues --    1.33811   1.34153   1.34622   1.35191   1.35946
 Alpha virt. eigenvalues --    1.36076   1.36548   1.36740   1.37478   1.38016
 Alpha virt. eigenvalues --    1.38371   1.38450   1.38899   1.40015   1.40896
 Alpha virt. eigenvalues --    1.42045   1.43193   1.43903   1.45046   1.45825
 Alpha virt. eigenvalues --    1.47438   1.47626   1.47762   1.49502   1.51318
 Alpha virt. eigenvalues --    1.53082   1.55050   1.55182   1.57640   1.58107
 Alpha virt. eigenvalues --    1.58584   1.59222   1.61108   1.62171   1.62729
 Alpha virt. eigenvalues --    1.64082   1.65814   1.66716   1.67056   1.67323
 Alpha virt. eigenvalues --    1.68829   1.69364   1.70213   1.71239   1.71540
 Alpha virt. eigenvalues --    1.72248   1.72340   1.72723   1.73292   1.73909
 Alpha virt. eigenvalues --    1.74279   1.74512   1.75261   1.75605   1.76697
 Alpha virt. eigenvalues --    1.77461   1.77504   1.77849   1.77993   1.78347
 Alpha virt. eigenvalues --    1.78628   1.79069   1.79118   1.79608   1.80000
 Alpha virt. eigenvalues --    1.80134   1.80682   1.81089   1.81281   1.81704
 Alpha virt. eigenvalues --    1.81870   1.82416   1.82831   1.83284   1.83564
 Alpha virt. eigenvalues --    1.84197   1.84313   1.84525   1.85040   1.85336
 Alpha virt. eigenvalues --    1.85833   1.86828   1.87191   1.87587   1.87951
 Alpha virt. eigenvalues --    1.88894   1.89634   1.90253   1.90701   1.91218
 Alpha virt. eigenvalues --    1.92098   1.92445   1.92928   1.93620   1.93905
 Alpha virt. eigenvalues --    1.94893   1.95236   1.95443   1.97065   1.97651
 Alpha virt. eigenvalues --    1.97914   1.98650   1.98975   1.99376   2.00453
 Alpha virt. eigenvalues --    2.00935   2.01346   2.01475   2.02273   2.02470
 Alpha virt. eigenvalues --    2.02749   2.03198   2.03378   2.03708   2.04207
 Alpha virt. eigenvalues --    2.04313   2.04487   2.04604   2.05204   2.05489
 Alpha virt. eigenvalues --    2.06495   2.06924   2.08212   2.08839   2.09176
 Alpha virt. eigenvalues --    2.09858   2.10447   2.11128   2.12292   2.12967
 Alpha virt. eigenvalues --    2.14134   2.14246   2.14441   2.15564   2.16866
 Alpha virt. eigenvalues --    2.17413   2.17614   2.18211   2.18355   2.18988
 Alpha virt. eigenvalues --    2.20241   2.20636   2.20712   2.21750   2.22261
 Alpha virt. eigenvalues --    2.23103   2.23300   2.24712   2.25071   2.25926
 Alpha virt. eigenvalues --    2.26358   2.28062   2.28570   2.30136   2.30506
 Alpha virt. eigenvalues --    2.31783   2.32281   2.32470   2.32779   2.33593
 Alpha virt. eigenvalues --    2.34243   2.35160   2.35284   2.35684   2.36159
 Alpha virt. eigenvalues --    2.36304   2.36712   2.37812   2.38113   2.38334
 Alpha virt. eigenvalues --    2.38749   2.39688   2.40021   2.40513   2.40829
 Alpha virt. eigenvalues --    2.41415   2.41640   2.42156   2.42815   2.43357
 Alpha virt. eigenvalues --    2.44252   2.45630   2.47013   2.48615   2.49099
 Alpha virt. eigenvalues --    2.51063   2.51709   2.53207   2.54248   2.55215
 Alpha virt. eigenvalues --    2.57124   2.57787   2.58922   2.59174   2.60544
 Alpha virt. eigenvalues --    2.61453   2.62955   2.65780   2.66181   2.67562
 Alpha virt. eigenvalues --    2.67769   2.68853   2.69361   2.69486   2.69593
 Alpha virt. eigenvalues --    2.69836   2.70344   2.70443   2.70570   2.70855
 Alpha virt. eigenvalues --    2.70887   2.71163   2.71822   2.72733   2.74354
 Alpha virt. eigenvalues --    2.76072   2.77395   2.78701   2.79160   2.79823
 Alpha virt. eigenvalues --    2.80106   2.80590   2.82802   2.84094   2.84466
 Alpha virt. eigenvalues --    2.85051   2.86076   2.86278   2.86965   2.88417
 Alpha virt. eigenvalues --    2.89424   2.90522   2.91534   2.92457   2.93316
 Alpha virt. eigenvalues --    2.95096   2.96415   2.99464   3.00641   3.02054
 Alpha virt. eigenvalues --    3.02256   3.04212   3.05003   3.05509   3.06798
 Alpha virt. eigenvalues --    3.07592   3.08041   3.09078   3.09379   3.10847
 Alpha virt. eigenvalues --    3.11224   3.15398   3.17001   3.18088   3.19852
 Alpha virt. eigenvalues --    3.20353   3.21727   3.22185   3.22731   3.24013
 Alpha virt. eigenvalues --    3.24539   3.25023   3.28488   3.29970   3.30301
 Alpha virt. eigenvalues --    3.33177   3.37195   3.39138   3.43092   3.47052
 Alpha virt. eigenvalues --    3.49951   3.51578   3.53153   3.54406   3.58595
 Alpha virt. eigenvalues --    3.60420   3.61204   3.61255   3.62554   3.63141
 Alpha virt. eigenvalues --    3.63958   3.65820   3.69635   3.70206   3.72036
 Alpha virt. eigenvalues --    3.77311   3.78223   3.78927   3.81534   3.86071
 Alpha virt. eigenvalues --    3.91173   3.92532   3.97527   4.01061   4.05055
 Alpha virt. eigenvalues --    4.07886
          Condensed to atoms (all electrons):
 Mulliken charges:
               1
     1  Mn  -0.716161
     2  C    0.345842
     3  O   -0.054015
     4  C    0.370902
     5  O   -0.043068
     6  C    0.313202
     7  N   -0.206473
     8  C   -0.047042
     9  C    0.048976
    10  C    0.121848
    11  H    0.067404
    12  H    0.042226
    13  N    0.144108
    14  C   -0.030182
    15  C   -0.142268
    16  C    0.034176
    17  C   -0.026560
    18  C    0.041393
    19  H    0.050875
    20  H    0.060152
    21  N   -0.211994
    22  C   -0.041351
    23  C    0.057212
    24  H    0.062773
    25  C    0.103083
    26  H    0.087070
    27  C    0.103405
    28  H    0.071700
    29  H    0.052618
    30  O   -0.060301
    31  C    0.024815
    32  C    0.081001
    33  C   -0.070988
    34  C   -0.022061
    35  C   -0.018268
    36  C   -0.021775
    37  C   -0.035742
    38  C   -0.062685
    39  C   -0.007206
    40  H    0.035779
    41  H    0.045471
    42  H    0.039440
    43  C   -0.032573
    44  C   -0.067393
    45  C   -0.030940
    46  C   -0.024165
    47  C   -0.018305
    48  C   -0.021185
    49  H    0.039765
    50  H    0.045420
    51  H    0.034548
    52  C   -0.080546
    53  H    0.056384
    54  C    0.146567
    55  H    0.040958
    56  H    0.029737
    57  C   -0.004289
    58  C   -0.024004
    59  H    0.053919
    60  H    0.055354
    61  Br  -0.892457
    62  H    0.019139
    63  H    0.086735
 Sum of Mulliken charges =  -0.00000
 Mulliken charges with hydrogens summed into heavy atoms:
               1
     1  Mn  -0.716161
     2  C    0.345842
     3  O   -0.054015
     4  C    0.370902
     5  O   -0.043068
     6  C    0.313202
     7  N   -0.206473
     8  C    0.020362
     9  C    0.091201
    10  C    0.151585
    13  N    0.144108
    14  C   -0.030182
    15  C   -0.142268
    16  C    0.085051
    17  C    0.026058
    18  C    0.101545
    21  N   -0.211994
    22  C    0.021422
    23  C    0.113597
    25  C    0.190154
    27  C    0.175105
    30  O   -0.060301
    31  C    0.111550
    32  C    0.100140
    33  C   -0.070988
    34  C   -0.022061
    35  C    0.017511
    36  C    0.023696
    37  C    0.003699
    38  C   -0.062685
    39  C   -0.007206
    43  C   -0.032573
    44  C   -0.067393
    45  C    0.008825
    46  C    0.021255
    47  C    0.016243
    48  C   -0.021185
    52  C   -0.080546
    54  C    0.187525
    57  C    0.051065
    58  C    0.029914
    61  Br  -0.892457
 Electronic spatial extent (au):  <R**2>=          24761.0550
 Charge=             -0.0000 electrons
 Dipole moment (field-independent basis, Debye):
    X=             11.0004    Y=            -12.3560    Z=             -5.4038  Tot=             17.4035
 Quadrupole moment (field-independent basis, Debye-Ang):
   XX=           -247.1504   YY=           -245.0999   ZZ=           -255.5731
   XY=             46.8136   XZ=             15.9146   YZ=              5.9891
 Traceless Quadrupole moment (field-independent basis, Debye-Ang):
   XX=              2.1241   YY=              4.1746   ZZ=             -6.2987
   XY=             46.8136   XZ=             15.9146   YZ=              5.9891
 Octapole moment (field-independent basis, Debye-Ang**2):
  XXX=             77.5031  YYY=            -29.7476  ZZZ=            -11.8723  XYY=            133.6806
  XXY=           -215.9345  XXZ=            -84.6512  XZZ=           -138.1081  YZZ=             -5.4553
  YYZ=             -9.2585  XYZ=            -34.1507
 Hexadecapole moment (field-independent basis, Debye-Ang**3):
 XXXX=         -17869.1035 YYYY=          -6982.8519 ZZZZ=          -4653.3541 XXXY=            944.0530
 XXXZ=            356.2389 YYYX=             38.2217 YYYZ=             14.7910 ZZZX=            334.9516
 ZZZY=             94.2327 XXYY=          -4633.2726 XXZZ=          -4056.9151 YYZZ=          -2115.9229
 XXYZ=            111.9397 YYXZ=             91.1929 ZZXY=             39.6177
 N-N= 5.948016865083D+03 E-N=-2.472392964796D+04  KE= 5.398404360230D+03
 PrsmSu:  requested number of processors reduced to:  11 ShMem   1 Linda.
 D1PCM: PCM CHGder 1st derivatives, ID1Alg=3 FixD1E=F DoIter=F DoCFld=F I1PDM=0.
 CoulSu:  requested number of processors reduced to:  10 ShMem   1 Linda.
 CoulSu:  requested number of processors reduced to:  10 ShMem   1 Linda.
 Calling FoFJK, ICntrl=      2127 FMM=T ISym2X=0 I1Cent= 0 IOpClX= 0 NMat=1 NMatS=1 NMatT=0.
 ***** Axes restored to original set *****
 -------------------------------------------------------------------
 Center     Atomic                   Forces (Hartrees/Bohr)
 Number     Number              X              Y              Z
 -------------------------------------------------------------------
      1       25          -0.004207130    0.002618512    0.003101782
      2        6          -0.005971022   -0.006498222   -0.000861407
      3        8           0.004456105    0.004085843    0.001126646
      4        6          -0.003627731   -0.002374893   -0.002671407
      5        8           0.002627406    0.000364544    0.001278339
      6        6           0.000624858   -0.001582053   -0.001249170
      7        7           0.002791299   -0.008141162    0.003310818
      8        6          -0.002798470   -0.008385912    0.000240332
      9        6          -0.001610684    0.004351368   -0.001905845
     10        6          -0.000043908   -0.005401433    0.001617065
     11        1           0.001205533    0.000893499    0.000224464
     12        1           0.000234696   -0.000682995    0.000365775
     13        7           0.005279438   -0.002487580    0.005419916
     14        6          -0.003009961    0.000352889    0.001134053
     15        6           0.001591968   -0.002645091    0.000563676
     16        6           0.000810990   -0.000296417    0.000008398
     17        6          -0.000435055    0.000518889    0.000232646
     18        6           0.001601966   -0.002437217   -0.000178719
     19        1           0.000313583    0.000957309   -0.000305371
     20        1          -0.003971235    0.002268936    0.001846330
     21        7           0.000643259    0.002071111   -0.003572517
     22        6           0.000074918    0.000576654    0.000982629
     23        6           0.000031631    0.000294517    0.000795147
     24        1          -0.000130825   -0.000482174   -0.000523772
     25        6           0.003164146   -0.041789385    0.020110189
     26        1           0.000252660   -0.034046269    0.014619612
     27        6           0.000133967    0.000285488   -0.000651995
     28        1          -0.000498398   -0.000967899   -0.000256285
     29        1           0.000686317    0.000113355   -0.000483562
     30        8          -0.001624493    0.000681994    0.001051695
     31        6           0.079885171   -0.184242890   -0.043434815
     32        6           0.167719641    0.194544162   -0.080737411
     33        6           0.001416231   -0.004743530    0.003809749
     34        6          -0.006457224    0.003534332   -0.012029925
     35        6           0.005680170    0.013908890    0.004969488
     36        6          -0.001568184   -0.014618297    0.007698593
     37        6          -0.007759048   -0.001518762   -0.013505747
     38        6          -0.021198442   -0.053896188    0.111395115
     39        6           0.002318745    0.076088302    0.088655508
     40        1           0.000889068   -0.000366724    0.000299530
     41        1           0.000961542    0.000019665    0.000196634
     42        1          -0.000473846    0.001277051   -0.000315035
     43        6          -0.070943982    0.077153949   -0.051556217
     44        6          -0.102979200   -0.047796488   -0.047709089
     45        6           0.006030558   -0.002894875    0.013944218
     46        6          -0.007208609   -0.014195921   -0.003916845
     47        6           0.000075112    0.015166026   -0.006273166
     48        6           0.005952333    0.000597606    0.012837557
     49        1           0.000170904    0.001111646    0.000798528
     50        1           0.000282490    0.000127476   -0.000833906
     51        1           0.000451050   -0.000528657   -0.000749869
     52        6          -0.003047046   -0.003490789   -0.000048360
     53        1           0.000228231    0.000128817   -0.000747483
     54        6          -0.001712900   -0.000409566   -0.001196615
     55        1          -0.000306587    0.000707658    0.000160272
     56        1          -0.000498802   -0.000490630   -0.000112363
     57        6          -0.000809384   -0.000115291    0.000361075
     58        6           0.002682263    0.001421109   -0.001155529
     59        1          -0.000560579   -0.000694458    0.000045277
     60        1           0.000496592   -0.000636858   -0.000527510
     61       35          -0.003083912    0.102215913   -0.042828729
     62        1          -0.040871123   -0.096667747    0.017995934
     63        1          -0.004357062    0.037088867   -0.000858321
 -------------------------------------------------------------------
 Cartesian Forces:  Max     0.194544162 RMS     0.032860934

 GradGradGradGradGradGradGradGradGradGradGradGradGradGradGradGradGradGrad
 Berny optimization.
 FormGI is forming the generalized inverse of G from B-inverse, IUseBI=4.
 Internal  Forces:  Max     0.117084603 RMS     0.015678962
 Search for a local minimum.
 Step number   1 out of a maximum of  374
 All quantities printed in internal units (Hartrees-Bohrs-Radians)
 Mixed Optimization -- RFO/linear search
 Second derivative matrix not updated -- first step.
 ITU=  0
     Eigenvalues ---    0.00230   0.00230   0.00234   0.00524   0.00594
     Eigenvalues ---    0.00705   0.00717   0.01186   0.01215   0.01428
     Eigenvalues ---    0.01445   0.01512   0.01563   0.01621   0.01629
     Eigenvalues ---    0.01658   0.01817   0.01833   0.01862   0.01889
     Eigenvalues ---    0.01942   0.02010   0.02066   0.02120   0.02132
     Eigenvalues ---    0.02133   0.02139   0.02143   0.02146   0.02157
     Eigenvalues ---    0.02161   0.02164   0.02167   0.02174   0.02176
     Eigenvalues ---    0.02177   0.02178   0.02179   0.02181   0.02182
     Eigenvalues ---    0.02195   0.02198   0.02227   0.02228   0.02267
     Eigenvalues ---    0.02298   0.02348   0.02353   0.02375   0.02698
     Eigenvalues ---    0.03292   0.03761   0.04002   0.04488   0.04933
     Eigenvalues ---    0.05053   0.05053   0.05118   0.05118   0.05121
     Eigenvalues ---    0.05121   0.06363   0.08440   0.08518   0.08790
     Eigenvalues ---    0.09011   0.09193   0.09216   0.11254   0.11858
     Eigenvalues ---    0.12405   0.13162   0.13425   0.14019   0.14839
     Eigenvalues ---    0.14864   0.15183   0.15957   0.15995   0.15996
     Eigenvalues ---    0.15998   0.15998   0.15998   0.15999   0.15999
     Eigenvalues ---    0.15999   0.15999   0.16000   0.16000   0.16000
     Eigenvalues ---    0.16000   0.16000   0.16000   0.16000   0.16000
     Eigenvalues ---    0.16000   0.16000   0.16421   0.16831   0.17983
     Eigenvalues ---    0.21681   0.21983   0.21987   0.22000   0.22000
     Eigenvalues ---    0.22017   0.22093   0.22116   0.22176   0.22532
     Eigenvalues ---    0.22920   0.22945   0.23028   0.23452   0.23483
     Eigenvalues ---    0.23483   0.23546   0.23742   0.23750   0.23929
     Eigenvalues ---    0.24898   0.24900   0.24989   0.24998   0.25000
     Eigenvalues ---    0.32874   0.33346   0.34063   0.34451   0.34460
     Eigenvalues ---    0.34466   0.34478   0.34480   0.34495   0.34496
     Eigenvalues ---    0.34520   0.34528   0.34534   0.34541   0.34542
     Eigenvalues ---    0.34661   0.34667   0.34671   0.34671   0.34782
     Eigenvalues ---    0.34852   0.37848   0.39583   0.40258   0.40313
     Eigenvalues ---    0.40648   0.41553   0.41590   0.41690   0.41890
     Eigenvalues ---    0.42246   0.43903   0.43927   0.44135   0.44960
     Eigenvalues ---    0.45518   0.45770   0.45844   0.45966   0.45992
     Eigenvalues ---    0.46145   0.46390   0.46485   0.46495   0.46821
     Eigenvalues ---    0.46854   0.47136   0.47320   0.47353   0.50894
     Eigenvalues ---    0.54323   0.54453   0.55739   0.56736   1.32816
     Eigenvalues ---    1.37496   1.41081   1.41250
 RFO step:  Lambda=-2.23457687D-01 EMin= 2.30000000D-03
 Linear search not attempted -- first point.
 Maximum step size (   0.300) exceeded in Quadratic search.
    -- Step size scaled by   0.403
 Iteration  1 RMS(Cart)=  0.03940677 RMS(Int)=  0.00031104
 Iteration  2 RMS(Cart)=  0.00077928 RMS(Int)=  0.00004078
 Iteration  3 RMS(Cart)=  0.00000059 RMS(Int)=  0.00004078
 Variable       Old X    -DE/DX   Delta X   Delta X   Delta X     New X
                                 (Linear)    (Quad)   (Total)
    R1        3.46312  -0.00201   0.00000  -0.00183  -0.00183   3.46129
    R2        3.46210   0.00030   0.00000   0.00027   0.00027   3.46238
    R3        3.43489   0.00037   0.00000   0.00033   0.00033   3.43522
    R4        4.14415  -0.00231   0.00000  -0.00333  -0.00337   4.14079
    R5        3.81879  -0.00323   0.00000  -0.00364  -0.00364   3.81515
    R6        4.15229  -0.00539   0.00000  -0.00695  -0.00701   4.14528
    R7        2.15575   0.00543   0.00000   0.00134   0.00134   2.15709
    R8        2.15617  -0.00061   0.00000  -0.00015  -0.00015   2.15602
    R9        2.16540  -0.00167   0.00000  -0.00042  -0.00042   2.16498
   R10        2.52339   0.00852   0.00000   0.00447   0.00446   2.52785
   R11        2.53987   0.02083   0.00000   0.01105   0.01105   2.55092
   R12        2.63084  -0.00380   0.00000  -0.00230  -0.00228   2.62856
   R13        2.06212  -0.00017   0.00000  -0.00012  -0.00012   2.06200
   R14        2.62095   0.00391   0.00000   0.00258   0.00259   2.62354
   R15        2.06550  -0.00014   0.00000  -0.00010  -0.00010   2.06540
   R16        2.63468  -0.00055   0.00000  -0.00074  -0.00074   2.63394
   R17        2.63795  -0.00148   0.00000  -0.00136  -0.00140   2.63654
   R18        2.06030  -0.00003   0.00000  -0.00002  -0.00002   2.06028
   R19        2.17795  -0.00021   0.00000  -0.00005  -0.00005   2.17789
   R20        2.71204  -0.00225   0.00000  -0.00145  -0.00145   2.71059
   R21        2.65254  -0.00115   0.00000  -0.00069  -0.00069   2.65184
   R22        2.64934   0.00012   0.00000   0.00006   0.00006   2.64939
   R23        2.62732   0.00019   0.00000   0.00012   0.00012   2.62744
   R24        2.06449  -0.00103   0.00000  -0.00073  -0.00073   2.06376
   R25        2.06439  -0.00084   0.00000  -0.00060  -0.00060   2.06379
   R26        2.63959  -0.00057   0.00000  -0.00032  -0.00032   2.63927
   R27        2.07224  -0.00414   0.00000  -0.00296  -0.00296   2.06929
   R28        2.63040  -0.00129   0.00000  -0.00076  -0.00076   2.62965
   R29        2.53974  -0.00117   0.00000  -0.00057  -0.00058   2.53915
   R30        2.52348   0.00033   0.00000   0.00008   0.00006   2.52354
   R31        2.63080   0.00008   0.00000  -0.00005  -0.00003   2.63077
   R32        2.06219  -0.00072   0.00000  -0.00051  -0.00051   2.06169
   R33        2.62113  -0.00001   0.00000  -0.00006  -0.00005   2.62108
   R34        2.63501   0.00071   0.00000   0.00039   0.00040   2.63541
   R35        2.06560  -0.00078   0.00000  -0.00056  -0.00056   2.06505
   R36        2.06213   0.06538   0.00000   0.04624   0.04624   2.10836
   R37        3.15799   0.11079   0.00000   0.13061   0.13061   3.28860
   R38        2.06229  -0.00102   0.00000  -0.00072  -0.00072   2.06157
   R39        3.36303  -0.11259   0.00000  -0.12266  -0.12260   3.24043
   R40        3.36283  -0.11023   0.00000  -0.11943  -0.11937   3.24345
   R41        1.97831   0.03479   0.00000   0.02239   0.02239   2.00069
   R42        3.35214  -0.11615   0.00000  -0.12587  -0.12589   3.22625
   R43        3.35186  -0.11708   0.00000  -0.12703  -0.12702   3.22484
[...]
                 (A) (A) (A) (A) (A) (A) (A) (A) (A) (A) (A) (A)
                 (A) (A) (A) (A) (A) (A) (A) (A) (A) (A) (A) (A)
                 (A) (A) (A) (A) (A) (A) (A) (A) (A) (A) (A) (A)
                 (A) (A) (A) (A) (A) (A) (A) (A) (A) (A) (A) (A)
                 (A) (A) (A) (A) (A) (A) (A) (A) (A) (A) (A) (A)
                 (A) (A) (A) (A) (A) (A) (A) (A) (A) (A) (A) (A)
                 (A) (A) (A) (A) (A) (A) (A) (A) (A) (A) (A) (A)
                 (A) (A) (A) (A) (A) (A) (A) (A) (A) (A)
 The electronic state is 1-A.
 Alpha  occ. eigenvalues -- -482.95256-235.70827 -62.53317 -56.33870 -56.33867
 Alpha  occ. eigenvalues --  -56.33865 -27.47864 -23.53666 -23.53418 -23.53411
 Alpha  occ. eigenvalues --  -19.34983 -19.34874 -19.34707 -14.51035 -14.50376
 Alpha  occ. eigenvalues --  -14.49969 -10.42412 -10.42407 -10.42243 -10.39281
 Alpha  occ. eigenvalues --  -10.37275 -10.36818 -10.36707 -10.35952 -10.35531
 Alpha  occ. eigenvalues --  -10.34843 -10.34729 -10.34263 -10.34083 -10.33732
 Alpha  occ. eigenvalues --  -10.33668 -10.33579 -10.33546 -10.33379 -10.33199
 Alpha  occ. eigenvalues --  -10.33134 -10.32838 -10.32795 -10.32786 -10.32697
 Alpha  occ. eigenvalues --  -10.32443 -10.32369 -10.32328 -10.32143 -10.32059
 Alpha  occ. eigenvalues --  -10.32007 -10.31927 -10.31867 -10.31856 -10.31731
 Alpha  occ. eigenvalues --   -8.70081  -6.51764  -6.51755  -6.51746  -3.27070
 Alpha  occ. eigenvalues --   -2.62271  -2.62270  -2.62263  -2.62256  -2.62254
 Alpha  occ. eigenvalues --   -2.12639  -2.12092  -2.12069  -1.23920  -1.23823
 Alpha  occ. eigenvalues --   -1.23681  -1.08632  -1.07806  -1.05301  -1.00245
 Alpha  occ. eigenvalues --   -0.98334  -0.97557  -0.94413  -0.93143  -0.91316
 Alpha  occ. eigenvalues --   -0.90804  -0.89612  -0.88689  -0.87327  -0.86613
 Alpha  occ. eigenvalues --   -0.85165  -0.84896  -0.81814  -0.76722  -0.75742
 Alpha  occ. eigenvalues --   -0.75521  -0.75404  -0.74981  -0.74441  -0.74232
 Alpha  occ. eigenvalues --   -0.72237  -0.72233  -0.70286  -0.68902  -0.68700
 Alpha  occ. eigenvalues --   -0.66150  -0.65607  -0.65424  -0.64991  -0.64500
 Alpha  occ. eigenvalues --   -0.64278  -0.62626  -0.62047  -0.60998  -0.60294
 Alpha  occ. eigenvalues --   -0.59964  -0.58964  -0.57942  -0.57701  -0.57563
 Alpha  occ. eigenvalues --   -0.57266  -0.57163  -0.56842  -0.56480  -0.55910
 Alpha  occ. eigenvalues --   -0.55751  -0.55609  -0.55136  -0.54995  -0.54708
 Alpha  occ. eigenvalues --   -0.54498  -0.54187  -0.53721  -0.53302  -0.53195
 Alpha  occ. eigenvalues --   -0.52536  -0.52407  -0.52280  -0.52080  -0.51409
 Alpha  occ. eigenvalues --   -0.51322  -0.51138  -0.51027  -0.50759  -0.49311
 Alpha  occ. eigenvalues --   -0.48874  -0.48256  -0.47810  -0.47499  -0.47242
 Alpha  occ. eigenvalues --   -0.46306  -0.46185  -0.44816  -0.44801  -0.43682
 Alpha  occ. eigenvalues --   -0.43346  -0.42398  -0.41571  -0.41016  -0.40683
 Alpha  occ. eigenvalues --   -0.40161  -0.39543  -0.37708  -0.36577  -0.36305
 Alpha  occ. eigenvalues --   -0.35755  -0.33732  -0.33282  -0.32934  -0.32439
 Alpha  occ. eigenvalues --   -0.32381  -0.29600  -0.29504  -0.29416  -0.27952
 Alpha virt. eigenvalues --   -0.02985  -0.00713   0.00040   0.00470   0.01621
 Alpha virt. eigenvalues --    0.02083   0.02530   0.03276   0.03872   0.03968
 Alpha virt. eigenvalues --    0.04610   0.06305   0.06437   0.07075   0.07829
 Alpha virt. eigenvalues --    0.08726   0.09357   0.09730   0.09970   0.10315
 Alpha virt. eigenvalues --    0.11589   0.11854   0.13078   0.13371   0.13557
 Alpha virt. eigenvalues --    0.14509   0.14820   0.15221   0.15290   0.15558
 Alpha virt. eigenvalues --    0.16282   0.17033   0.17666   0.17878   0.18271
 Alpha virt. eigenvalues --    0.18749   0.18803   0.19875   0.20005   0.20254
 Alpha virt. eigenvalues --    0.20935   0.21575   0.21879   0.22005   0.22521
 Alpha virt. eigenvalues --    0.22691   0.23178   0.23223   0.23976   0.24623
 Alpha virt. eigenvalues --    0.24816   0.25377   0.26151   0.26991   0.27526
 Alpha virt. eigenvalues --    0.27833   0.28504   0.28757   0.29456   0.29813
 Alpha virt. eigenvalues --    0.30110   0.30611   0.30882   0.31564   0.32074
 Alpha virt. eigenvalues --    0.32272   0.32600   0.33059   0.33440   0.33891
 Alpha virt. eigenvalues --    0.34437   0.34674   0.34870   0.35054   0.35229
 Alpha virt. eigenvalues --    0.36071   0.36438   0.36736   0.37426   0.37737
 Alpha virt. eigenvalues --    0.37985   0.38486   0.38787   0.39137   0.39814
 Alpha virt. eigenvalues --    0.40230   0.40606   0.40983   0.41615   0.42171
 Alpha virt. eigenvalues --    0.42248   0.42413   0.42708   0.43791   0.44275
 Alpha virt. eigenvalues --    0.44661   0.45312   0.46467   0.46804   0.47239
 Alpha virt. eigenvalues --    0.47484   0.47595   0.48437   0.48783   0.49268
 Alpha virt. eigenvalues --    0.49800   0.49960   0.50140   0.51145   0.51293
 Alpha virt. eigenvalues --    0.51850   0.51921   0.52430   0.52603   0.52914
 Alpha virt. eigenvalues --    0.53428   0.53703   0.54019   0.54708   0.54851
 Alpha virt. eigenvalues --    0.54924   0.55277   0.55548   0.55798   0.56342
 Alpha virt. eigenvalues --    0.56469   0.56745   0.56980   0.57306   0.57729
 Alpha virt. eigenvalues --    0.58263   0.58677   0.59374   0.59750   0.60318
 Alpha virt. eigenvalues --    0.60491   0.61227   0.61663   0.61785   0.62103
 Alpha virt. eigenvalues --    0.62561   0.63450   0.63659   0.64110   0.64553
 Alpha virt. eigenvalues --    0.65069   0.65396   0.66067   0.66613   0.67181
 Alpha virt. eigenvalues --    0.67541   0.67736   0.68037   0.68317   0.68901
 Alpha virt. eigenvalues --    0.68955   0.69264   0.70455   0.70635   0.70987
 Alpha virt. eigenvalues --    0.71634   0.71792   0.72084   0.72350   0.72613
 Alpha virt. eigenvalues --    0.73020   0.73037   0.73408   0.73511   0.74017
 Alpha virt. eigenvalues --    0.74219   0.74489   0.74661   0.74845   0.75271
 Alpha virt. eigenvalues --    0.75511   0.75729   0.75901   0.76742   0.76861
 Alpha virt. eigenvalues --    0.77151   0.77171   0.77494   0.77842   0.78765
 Alpha virt. eigenvalues --    0.79044   0.79283   0.79505   0.79872   0.80241
 Alpha virt. eigenvalues --    0.80536   0.80632   0.80894   0.81199   0.81773
 Alpha virt. eigenvalues --    0.82144   0.82832   0.83007   0.83367   0.83576
 Alpha virt. eigenvalues --    0.84085   0.84619   0.84884   0.84984   0.85150
 Alpha virt. eigenvalues --    0.85211   0.85361   0.85972   0.86451   0.86823
 Alpha virt. eigenvalues --    0.87023   0.87578   0.87723   0.88163   0.88220
 Alpha virt. eigenvalues --    0.88449   0.88990   0.89487   0.89775   0.90370
 Alpha virt. eigenvalues --    0.90719   0.91039   0.91496   0.91736   0.92288
 Alpha virt. eigenvalues --    0.93846   0.94165   0.94639   0.94873   0.95044
 Alpha virt. eigenvalues --    0.95441   0.96383   0.96955   0.97180   0.97626
 Alpha virt. eigenvalues --    0.97992   0.98998   0.99219   0.99911   1.00637
 Alpha virt. eigenvalues --    1.00949   1.01383   1.03344   1.03880   1.04174
 Alpha virt. eigenvalues --    1.06291   1.07314   1.07961   1.09280   1.10443
 Alpha virt. eigenvalues --    1.11220   1.11499   1.13107   1.13704   1.14055
 Alpha virt. eigenvalues --    1.14375   1.15273   1.15843   1.16044   1.16393
 Alpha virt. eigenvalues --    1.16477   1.18534   1.18716   1.20175   1.21125
 Alpha virt. eigenvalues --    1.21699   1.22957   1.24378   1.24829   1.25110
 Alpha virt. eigenvalues --    1.25490   1.26462   1.27168   1.27297   1.27879
 Alpha virt. eigenvalues --    1.28210   1.28573   1.29569   1.29918   1.30514
 Alpha virt. eigenvalues --    1.30562   1.30862   1.30915   1.31486   1.32038
 Alpha virt. eigenvalues --    1.32332   1.32571   1.33388   1.33791   1.33875
 Alpha virt. eigenvalues --    1.34149   1.34715   1.35146   1.35432   1.35681
 Alpha virt. eigenvalues --    1.35955   1.36307   1.36577   1.37022   1.37399
 Alpha virt. eigenvalues --    1.37542   1.39218   1.39462   1.40389   1.40771
 Alpha virt. eigenvalues --    1.42060   1.42548   1.43794   1.44601   1.45681
 Alpha virt. eigenvalues --    1.46856   1.48787   1.48955   1.50109   1.50565
 Alpha virt. eigenvalues --    1.53805   1.55111   1.55684   1.58963   1.59292
 Alpha virt. eigenvalues --    1.60099   1.61017   1.63196   1.63306   1.65065
 Alpha virt. eigenvalues --    1.65768   1.66073   1.66424   1.67268   1.68537
 Alpha virt. eigenvalues --    1.69141   1.69789   1.70370   1.71567   1.71723
 Alpha virt. eigenvalues --    1.72987   1.73152   1.73448   1.73479   1.73699
 Alpha virt. eigenvalues --    1.74127   1.74676   1.75179   1.75610   1.75825
 Alpha virt. eigenvalues --    1.76759   1.77173   1.77543   1.78580   1.78694
 Alpha virt. eigenvalues --    1.78879   1.79201   1.79572   1.80075   1.80083
 Alpha virt. eigenvalues --    1.80747   1.81076   1.81206   1.81463   1.81852
 Alpha virt. eigenvalues --    1.82070   1.82124   1.82834   1.83251   1.83386
 Alpha virt. eigenvalues --    1.83648   1.84105   1.84671   1.84834   1.85489
 Alpha virt. eigenvalues --    1.85739   1.85990   1.86242   1.87060   1.87870
 Alpha virt. eigenvalues --    1.88225   1.88680   1.88984   1.89415   1.89828
 Alpha virt. eigenvalues --    1.90402   1.90993   1.91537   1.92129   1.92506
 Alpha virt. eigenvalues --    1.93233   1.94550   1.95214   1.95890   1.96326
 Alpha virt. eigenvalues --    1.97467   1.97628   1.98388   1.99475   2.00272
 Alpha virt. eigenvalues --    2.00807   2.01220   2.01920   2.02305   2.02842
 Alpha virt. eigenvalues --    2.02876   2.03348   2.03845   2.04451   2.04767
 Alpha virt. eigenvalues --    2.05135   2.05563   2.06091   2.06590   2.06830
 Alpha virt. eigenvalues --    2.07621   2.08325   2.10059   2.10189   2.10653
 Alpha virt. eigenvalues --    2.10984   2.11913   2.12776   2.13669   2.14402
 Alpha virt. eigenvalues --    2.15145   2.15535   2.16158   2.16826   2.17105
 Alpha virt. eigenvalues --    2.17694   2.18024   2.18487   2.19408   2.19825
 Alpha virt. eigenvalues --    2.20074   2.20958   2.21291   2.21882   2.22762
 Alpha virt. eigenvalues --    2.23634   2.23866   2.24379   2.24571   2.26085
 Alpha virt. eigenvalues --    2.26787   2.29808   2.30259   2.31216   2.31312
 Alpha virt. eigenvalues --    2.31577   2.32374   2.33418   2.34394   2.34980
 Alpha virt. eigenvalues --    2.35147   2.35574   2.35883   2.36621   2.37106
 Alpha virt. eigenvalues --    2.37531   2.37842   2.37940   2.38744   2.38899
 Alpha virt. eigenvalues --    2.39572   2.41116   2.41294   2.42820   2.43233
 Alpha virt. eigenvalues --    2.44147   2.45310   2.45461   2.45989   2.46875
 Alpha virt. eigenvalues --    2.47494   2.48030   2.49809   2.50053   2.51304
 Alpha virt. eigenvalues --    2.53861   2.54956   2.56479   2.57866   2.59114
 Alpha virt. eigenvalues --    2.60384   2.60866   2.61517   2.63614   2.64817
 Alpha virt. eigenvalues --    2.65925   2.66205   2.66761   2.67272   2.67833
 Alpha virt. eigenvalues --    2.67887   2.68474   2.69111   2.69168   2.69591
 Alpha virt. eigenvalues --    2.69684   2.70141   2.70326   2.70827   2.72378
 Alpha virt. eigenvalues --    2.72605   2.73150   2.74300   2.74756   2.75786
 Alpha virt. eigenvalues --    2.76243   2.79146   2.79706   2.79923   2.80297
 Alpha virt. eigenvalues --    2.80497   2.81876   2.82308   2.82799   2.84188
 Alpha virt. eigenvalues --    2.85323   2.85670   2.85842   2.86999   2.87349
 Alpha virt. eigenvalues --    2.87647   2.90458   2.92271   2.93220   2.94762
 Alpha virt. eigenvalues --    2.96164   2.97959   2.98581   3.00252   3.01648
 Alpha virt. eigenvalues --    3.02467   3.05592   3.05858   3.06867   3.07076
 Alpha virt. eigenvalues --    3.08132   3.09234   3.09288   3.11858   3.12443
 Alpha virt. eigenvalues --    3.16182   3.16745   3.19310   3.19655   3.20517
 Alpha virt. eigenvalues --    3.20886   3.21142   3.21683   3.22459   3.24200
 Alpha virt. eigenvalues --    3.24562   3.29234   3.29844   3.32798   3.32858
 Alpha virt. eigenvalues --    3.37331   3.38570   3.41500   3.46001   3.50214
 Alpha virt. eigenvalues --    3.51054   3.51640   3.52551   3.54163   3.60977
 Alpha virt. eigenvalues --    3.61248   3.61737   3.62596   3.63207   3.63749
 Alpha virt. eigenvalues --    3.65230   3.66198   3.69678   3.71884   3.72741
 Alpha virt. eigenvalues --    3.75673   3.76115   3.77722   3.78827   3.80083
 Alpha virt. eigenvalues --    3.80857   3.91253   3.91914   3.97435   4.04421
 Alpha virt. eigenvalues --    4.07073
          Condensed to atoms (all electrons):
 Mulliken charges:
               1
     1  Mn  -0.725458
     2  C    0.361535
     3  O   -0.050950
     4  C    0.369238
     5  O   -0.036668
     6  C    0.300757
     7  N   -0.209393
     8  C   -0.040062
     9  C    0.051703
    10  C    0.085924
    11  H    0.073164
    12  H    0.053149
    13  N    0.115013
    14  C   -0.011386
    15  C   -0.149406
    16  C    0.034367
    17  C   -0.023827
    18  C    0.054291
    19  H    0.048725
    20  H    0.060336
    21  N   -0.207656
    22  C   -0.035858
    23  C    0.053617
    24  H    0.063295
    25  C    0.106546
    26  H    0.092060
    27  C    0.110543
    28  H    0.068720
    29  H    0.053065
    30  O   -0.052664
    31  C   -0.182194
    32  C   -0.081605
    33  C   -0.056103
    34  C    0.059460
    35  C   -0.059697
    36  C   -0.018195
    37  C   -0.019741
    38  C    0.019126
    39  C    0.079340
    40  H    0.036093
    41  H    0.043609
    42  H    0.030990
    43  C    0.079520
    44  C    0.018243
    45  C   -0.017850
    46  C   -0.019662
    47  C   -0.059311
    48  C    0.058258
    49  H    0.031675
    50  H    0.043329
    51  H    0.033961
    52  C   -0.058497
    53  H    0.056670
    54  C    0.089703
    55  H    0.056624
    56  H    0.051105
    57  C   -0.000546
    58  C   -0.025002
    59  H    0.055025
    60  H    0.056099
    61  Br  -0.987496
    62  H    0.020223
    63  H    0.054125
 Sum of Mulliken charges =  -0.00000
 Mulliken charges with hydrogens summed into heavy atoms:
               1
     1  Mn  -0.725458
     2  C    0.361535
     3  O   -0.050950
     4  C    0.369238
     5  O   -0.036668
     6  C    0.300757
     7  N   -0.209393
     8  C    0.033102
     9  C    0.104853
    10  C    0.137029
    13  N    0.115013
    14  C   -0.011386
    15  C   -0.149406
    16  C    0.083092
    17  C    0.029237
    18  C    0.114627
    21  N   -0.207656
    22  C    0.027437
    23  C    0.110288
    25  C    0.198606
    27  C    0.179262
    30  O   -0.052664
    31  C   -0.128069
    32  C   -0.061381
    33  C   -0.056103
    34  C    0.059460
    35  C   -0.023604
    36  C    0.025415
    37  C    0.011249
    38  C    0.019126
    39  C    0.079340
    43  C    0.079520
    44  C    0.018243
    45  C    0.013825
    46  C    0.023666
    47  C   -0.025351
    48  C    0.058258
    52  C   -0.058497
    54  C    0.146328
    57  C    0.055553
    58  C    0.030023
    61  Br  -0.987496
 Electronic spatial extent (au):  <R**2>=          26223.6687
 Charge=              0.0000 electrons
 Dipole moment (field-independent basis, Debye):
    X=             17.1247    Y=            -13.9489    Z=             -6.1339  Tot=             22.9228
 Quadrupole moment (field-independent basis, Debye-Ang):
   XX=           -275.8339   YY=           -248.3666   ZZ=           -254.8480
   XY=             66.3048   XZ=             12.9585   YZ=              5.8793
 Traceless Quadrupole moment (field-independent basis, Debye-Ang):
   XX=            -16.1510   YY=             11.3162   ZZ=              4.8348
   XY=             66.3048   XZ=             12.9585   YZ=              5.8793
 Octapole moment (field-independent basis, Debye-Ang**2):
  XXX=            302.4612  YYY=            -36.9764  ZZZ=              3.8831  XYY=            194.4143
  XXY=           -349.7157  XXZ=            -86.2354  XZZ=           -137.6225  YZZ=             -8.6930
  YYZ=            -52.0656  XYZ=            -31.3253
 Hexadecapole moment (field-independent basis, Debye-Ang**3):
 XXXX=         -21033.7840 YYYY=          -7103.8527 ZZZZ=          -3943.1164 XXXY=           1724.0973
 XXXZ=            399.6646 YYYX=            139.9408 YYYZ=              3.3066 ZZZX=            284.0780
 ZZZY=             81.1465 XXYY=          -5246.8854 XXZZ=          -4422.6223 YYZZ=          -1942.0702
 XXYZ=            169.3573 YYXZ=            -31.8782 ZZXY=             35.0001
 N-N= 5.861238456183D+03 E-N=-2.454917129044D+04  KE= 5.399330134115D+03
 1\1\GINC-C425-061\FOpt\RwB97XD\Gen\C34H21Br1Mn1N3O3\DMCINTOS\22-Dec-20
 22\0\\# wB97XD Gen SCRF=(Solvent=TetraHydroFuran) Opt\\Anth Reactant O
 ptimization\\0,1\Mn,8.4526737647,3.0171311931,14.8800251898\C,10.05146
 80777,3.5962464518,15.5537985507\O,11.0497749127,3.9532162477,15.97857
 15729\C,8.8214053665,3.6936957769,13.2131301683\O,9.0597745871,4.09713
 55514,12.173735038\C,9.2337680608,1.4455513519,14.3977706844\N,6.51411
 55087,2.3946806736,14.1573401215\C,4.3080008709,2.9478795479,13.406401
 8242\C,3.9138750592,1.6172063815,13.4898135065\C,6.1468266578,1.107625
 548,14.1556054263\H,3.616980807,3.7277442405,13.0850273804\H,2.8869466
 227,1.3229164224,13.2625269177\N,7.5896511652,4.7637384903,15.41435214
 47\C,7.1348797759,5.7797290275,15.7190416375\C,6.5642254832,7.01321709
 32,16.1656607449\C,5.3780478779,6.9823637446,16.9140051098\C,4.8261749
 393,8.179054332,17.3577025033\C,7.1967790099,8.2270718407,15.861411644
 4\H,4.8963923682,6.0290816712,17.136893149\H,8.1121851076,8.2329221799
 ,15.2688971036\N,7.9223852264,2.2796047965,16.8546649296\C,7.284305401
 5,2.6993273371,19.1274649518\C,6.9684799663,1.357587291,19.3169336674\
 H,7.15742493,3.427979333,19.9283419857\C,5.6040777825,3.300681714,13.7
 609084797\H,5.9147420659,4.3461996267,13.6987787772\C,7.7399945184,3.1
 207589846,17.8862732149\H,7.9671974934,4.1714678255,17.7132493884\H,3.
 9015518097,8.1669519082,17.9369192135\O,9.7523301486,0.4761542854,14.0
 786103064\C,5.5081137927,-0.906650124,16.2737028423\C,5.1676027186,-3.
 6665854132,16.3312091776\C,4.8523115768,0.6558232996,13.8753066483\C,4
 .5184728822,-0.789380417,13.9939378484\C,3.8802645107,-1.4512555522,12
 .9752814948\C,3.6206688523,-2.8512437553,13.04898311\C,4.0364467094,-3
 .5827319172,14.1249027486\C,4.7109726552,-2.9488945179,15.2177927246\C
 ,4.9132251909,-1.5281378639,15.1739273943\H,3.5973646385,-0.9071721843
 ,12.0711298473\H,3.1103346118,-3.3394010222,12.2165544105\H,3.86752149
 83,-4.6612477933,14.164664854\C,6.0607374588,-1.6255544215,17.33537250
 66\C,5.8609332432,-3.0463652898,17.3788074342\C,6.3668335693,-3.779212
 7212,18.5005958308\C,7.0514786373,-3.1407783783,19.4953048688\C,7.3049
 501881,-1.7396415354,19.4214052313\C,6.8405770636,-0.9863601265,18.372
 8765608\H,6.2010208466,-4.8581630333,18.5422480933\H,7.4386304802,-3.7
 048770737,20.3458937777\H,7.9124984408,-1.2693917468,20.1982591791\C,7
 .1684496019,0.4607034605,18.2657699904\H,6.5609988055,1.0090558337,20.
 2681797102\C,7.6878466379,0.9811705069,17.073462634\H,7.9159342555,0.2
 961849607,16.2576869358\H,6.9193847633,0.3764264696,14.3917420146\C,5.
 4517006805,9.3902394848,17.0578171476\C,6.6326226809,9.414269691,16.31
 3607151\H,7.1135981916,10.3649101742,16.0784645698\H,5.0122429184,10.3
 271209268,17.4059060617\Br,5.8782833236,6.7755435921,12.3934272368\H,4
 .991815509,-4.7445114407,16.37604032\H,5.5516277011,0.1783670597,16.29
 93043121\\Version=ES64L-G16RevA.03\State=1-A\HF=-5421.4787884\RMSD=7.5
 27e-09\RMSF=3.525e-06\Dipole=-0.26587,-5.5275839,7.1209944\Quadrupole=
 3.552213,3.716929,-7.269142,13.0620665,1.5844555,49.4287657\PG=C01 [X(
 C34H21Br1Mn1N3O3)]\\@


 DO YOU KNOW THAT THE LETTERS IN "EPISCOPAL", WHEN
 REARRANGED, SPELL "PEPSI COLA"?
 Job cpu time:      13 days  3 hours 34 minutes  9.5 seconds.
 Elapsed time:       1 days  2 hours 53 minutes  7.8 seconds.
 File lengths (MBytes):  RWF=   1092 Int=      0 D2E=      0 Chk=     50 Scr=      1
 Normal termination of Gaussian 16 at Thu Dec 22 00:27:06 2022.
