 Entering Gaussian System, Link 0=g16
 Initial command:
 /home1/apps/gaussian/16rA.03/g16/l1.exe "/tmp/Gau-76991.inp" -scrdir="/tmp/"
 Entering Link 1 = /home1/apps/gaussian/16rA.03/g16/l1.exe PID=     76993.
  
 Copyright (c) 1988,1990,1992,1993,1995,1998,2003,2009,2016,
            Gaussian, Inc.  All Rights Reserved.
  
 This is part of the Gaussian(R) 16 program.  It is based on
 the Gaussian(R) 09 system (copyright 2009, Gaussian, Inc.),
 the Gaussian(R) 03 system (copyright 2003, Gaussian, Inc.),
 the Gaussian(R) 98 system (copyright 1998, Gaussian, Inc.),
 the Gaussian(R) 94 system (copyright 1995, Gaussian, Inc.),
 the Gaussian 92(TM) system (copyright 1992, Gaussian, Inc.),
 the Gaussian 90(TM) system (copyright 1990, Gaussian, Inc.),
 the Gaussian 88(TM) system (copyright 1988, Gaussian, Inc.),
 the Gaussian 86(TM) system (copyright 1986, Carnegie Mellon
 University), and the Gaussian 82(TM) system (copyright 1983,
 Carnegie Mellon University). Gaussian is a federally registered
 trademark of Gaussian, Inc.
  
 This software contains proprietary and confidential information,
 including trade secrets, belonging to Gaussian, Inc.
  
 This software is provided under written license and may be
 used, copied, transmitted, or stored only in accord with that
 written license.
  
 The following legend is applicable only to US Government
 contracts under FAR:
  
                    RESTRICTED RIGHTS LEGEND
  
 Use, reproduction and disclosure by the US Government is
 subject to restrictions as set forth in subparagraphs (a)
 and (c) of the Commercial Computer Software - Restricted
 Rights clause in FAR 52.227-19.
  
 Gaussian, Inc.
 340 Quinnipiac St., Bldg. 40, Wallingford CT 06492
  
  
 ---------------------------------------------------------------
 Warning -- This program may not be used in any manner that
 competes with the business of Gaussian, Inc. or will provide
 assistance to any competitor of Gaussian, Inc.  The licensee
 of this program is prohibited from giving any competitor of
 Gaussian, Inc. access to this program.  By using this program,
 the user acknowledges that Gaussian, Inc. is engaged in the
 business of creating and licensing software in the field of
 computational chemistry and represents and warrants to the
 licensee that it is not a competitor of Gaussian, Inc. and that
 it will not use this program in any manner prohibited above.
 ---------------------------------------------------------------
  

 Cite this work as:
 Gaussian 16, Revision A.03,
 M. J. Frisch, G. W. Trucks, H. B. Schlegel, G. E. Scuseria, 
 M. A. Robb, J. R. Cheeseman, G. Scalmani, V. Barone, 
 G. A. Petersson, H. Nakatsuji, X. Li, M. Caricato, A. V. Marenich, 
 J. Bloino, B. G. Janesko, R. Gomperts, B. Mennucci, H. P. Hratchian, 
 J. V. Ortiz, A. F. Izmaylov, J. L. Sonnenberg, D. Williams-Young, 
 F. Ding, F. Lipparini, F. Egidi, J. Goings, B. Peng, A. Petrone, 
 T. Henderson, D. Ranasinghe, V. G. Zakrzewski, J. Gao, N. Rega, 
 G. Zheng, W. Liang, M. Hada, M. Ehara, K. Toyota, R. Fukuda, 
 J. Hasegawa, M. Ishida, T. Nakajima, Y. Honda, O. Kitao, H. Nakai, 
 T. Vreven, K. Throssell, J. A. Montgomery, Jr., J. E. Peralta, 
 F. Ogliaro, M. J. Bearpark, J. J. Heyd, E. N. Brothers, K. N. Kudin, 
 V. N. Staroverov, T. A. Keith, R. Kobayashi, J. Normand, 
 K. Raghavachari, A. P. Rendell, J. C. Burant, S. S. Iyengar, 
 J. Tomasi, M. Cossi, J. M. Millam, M. Klene, C. Adamo, R. Cammi, 
 J. W. Ochterski, R. L. Martin, K. Morokuma, O. Farkas, 
 J. B. Foresman, and D. J. Fox, Gaussian, Inc., Wallingford CT, 2016.
 
 ******************************************
 Gaussian 16:  ES64L-G16RevA.03 25-Dec-2016
                29-Dec-2022 
 ******************************************
 %Chk=checkpoint.chk
 %NProcShared=12
 Will use up to   12 processors via shared memory.
 -----------------------------------------------
 # wB97XD Gen Opt SCRF=(Solvent=TetraHydroFuran)
 -----------------------------------------------
 1/18=20,19=15,26=3,38=1/1,3;
 2/9=110,12=2,17=6,18=5,40=1/2;
 3/5=7,11=2,25=1,30=1,70=2201,71=1,72=20,74=-58/1,2,3;
 4//1;
 5/5=2,38=5,53=20/2;
 6/7=2,8=2,9=2,10=2,28=1/1;
 7//1,2,3,16;
 1/18=20,19=15,26=3/3(2);
 2/9=110/2;
 99//99;
 2/9=110/2;
 3/5=7,6=1,11=2,25=1,30=1,70=2205,71=1,72=20,74=-58,82=7/1,2,3;
 4/5=5,16=3,69=1/1;
 5/5=2,38=5,53=20/2;
 7//1,2,3,16;
 1/18=20,19=15,26=3/3(-5);
 2/9=110/2;
 6/7=2,8=2,9=2,10=2,19=2,28=1/1;
 99/9=1/99;
 ----------------------------
 Mn Transition State Reactant
 ----------------------------
 Symbolic Z-matrix:
 Charge =  0 Multiplicity = 1
 Mn                   -0.89729  -0.43305   1.75581 
 C                    -1.4909   -1.82634   2.78141 
 O                    -1.85628  -2.69934   3.42082 
 C                    -1.89904   0.78655   2.6946 
 O                    -2.50643   1.54541   3.29052 
 C                     0.47908  -0.17377   2.9181 
 N                    -0.2383    1.16355   0.45799 
 C                    -0.70987   2.76472  -1.25978 
 C                     0.64463   3.03204  -1.42362 
 C                     1.05541   1.48842   0.34768 
 H                    -1.46696   3.26877  -1.86122 
 H                     0.9875    3.73638  -2.18467 
 N                    -2.42772  -0.72209   0.46926 
 C                    -3.32352  -0.90636  -0.23463 
 C                    -4.39531  -1.18926  -1.13898 
 C                    -4.11677  -1.30439  -2.50907 
 C                    -5.15485  -1.58882  -3.3894 
 C                    -5.6983   -1.35646  -0.64867 
 H                    -3.09785  -1.16582  -2.87377 
 H                    -5.89843  -1.25221   0.41818 
 N                     0.2356   -1.84293   0.55034 
 C                     0.30066  -3.60666  -1.07261 
 C                     1.67805  -3.46722  -1.21144 
 H                    -0.25395  -4.34315  -1.65435 
 C                    -1.112     1.81838  -0.3256 
 H                    -2.17571   1.60488  -0.19747 
 C                    -0.38167  -2.77116  -0.19959 
 H                    -1.46292  -2.84945  -0.09795 
 H                    -4.95018  -1.67639  -4.45758 
 O                     1.32064  -0.01147   3.677 
 C                     3.47419   0.1561   -0.80386 
 C                     6.21762   0.59488  -0.67136 
 C                     1.56785   2.38061  -0.60093 
 C                     3.03522   2.60325  -0.70769 
 C                     3.5565    3.87257  -0.71943 
 C                     4.96442   4.0955   -0.74846 
 C                     5.83809   3.04584  -0.72681 
 C                     5.35443   1.6979   -0.71056 
 C                     3.93702   1.4723   -0.7487 
 H                     2.88517   4.73288  -0.66703 
 H                     5.33775   5.12128  -0.75691 
 H                     6.91669   3.21841  -0.71429 
 C                     4.32008  -0.94492  -0.657 
 C                     5.73723  -0.72006  -0.6165 
 C                     6.61216  -1.85109  -0.53481 
 C                     6.10508  -3.11764  -0.46766 
 C                     4.69657  -3.33774  -0.44416 
 C                     3.81115  -2.29271  -0.52434 
 H                     7.69123  -1.68155  -0.52028 
 H                     6.77639  -3.97584  -0.40118 
 H                     4.32146  -4.35668  -0.32253 
 C                     2.34463  -2.52302  -0.42819 
 H                     2.23146  -4.07789  -1.92782 
 C                     1.56834  -1.77166   0.46349 
 H                     2.06798  -1.07347   1.13402 
 H                     1.74162   1.01645   1.05026 
 C                    -6.45377  -1.75634  -2.90676 
 C                    -6.72438  -1.64163  -1.54199 
 H                    -7.7429   -1.76876  -1.17212 
 H                    -7.26565  -1.97628  -3.60283 
 Br                   -5.44663  -1.01353   3.66978 
 H                     7.29721   0.76604  -0.66721 
 H                     2.41296  -0.0177   -0.95688 
 
 Add virtual bond connecting atoms Br61       and H20        Dist= 6.22D+00.

 GradGradGradGradGradGradGradGradGradGradGradGradGradGradGradGradGradGrad
 Berny optimization.
 Initialization pass.
                           ----------------------------
                           !    Initial Parameters    !
                           ! (Angstroms and Degrees)  !
 --------------------------                            --------------------------
 ! Name  Definition              Value          Derivative Info.                !
 --------------------------------------------------------------------------------
 ! R1    R(1,2)                  1.8291         estimate D2E/DX2                !
 ! R2    R(1,4)                  1.8364         estimate D2E/DX2                !
 ! R3    R(1,6)                  1.82           estimate D2E/DX2                !
 ! R4    R(1,7)                  2.1605         estimate D2E/DX2                !
 ! R5    R(1,13)                 2.0201         estimate D2E/DX2                !
 ! R6    R(2,3)                  1.1421         estimate D2E/DX2                !
 ! R7    R(4,5)                  1.1401         estimate D2E/DX2                !
 ! R8    R(6,30)                 1.1448         estimate D2E/DX2                !
 ! R9    R(7,10)                 1.3384         estimate D2E/DX2                !
 ! R10   R(7,25)                 1.3439         estimate D2E/DX2                !
 ! R11   R(8,9)                  1.3903         estimate D2E/DX2                !
 ! R12   R(8,11)                 1.0904         estimate D2E/DX2                !
 ! R13   R(8,25)                 1.3892         estimate D2E/DX2                !
 ! R14   R(9,12)                 1.0922         estimate D2E/DX2                !
 ! R15   R(9,33)                 1.3977         estimate D2E/DX2                !
 ! R16   R(10,33)                1.3994         estimate D2E/DX2                !
 ! R17   R(10,56)                1.0896         estimate D2E/DX2                !
 ! R18   R(13,14)                1.1541         estimate D2E/DX2                !
 ! R19   R(14,15)                1.4306         estimate D2E/DX2                !
 ! R20   R(15,16)                1.4028         estimate D2E/DX2                !
 ! R21   R(15,18)                1.4022         estimate D2E/DX2                !
 ! R22   R(16,17)                1.3905         estimate D2E/DX2                !
 ! R23   R(16,19)                1.0911         estimate D2E/DX2                !
 ! R24   R(17,29)                1.0911         estimate D2E/DX2                !
 ! R25   R(17,57)                1.3958         estimate D2E/DX2                !
 ! R26   R(18,20)                1.0905         estimate D2E/DX2                !
 ! R27   R(18,58)                1.39           estimate D2E/DX2                !
 ! R28   R(20,61)                3.2915         estimate D2E/DX2                !
 ! R29   R(21,27)                1.3435         estimate D2E/DX2                !
 ! R30   R(21,54)                1.3375         estimate D2E/DX2                !
 ! R31   R(22,23)                1.3914         estimate D2E/DX2                !
 ! R32   R(22,24)                1.0902         estimate D2E/DX2                !
 ! R33   R(22,27)                1.3877         estimate D2E/DX2                !
 ! R34   R(23,52)                1.3962         estimate D2E/DX2                !
 ! R35   R(23,53)                1.092          estimate D2E/DX2                !
 ! R36   R(25,26)                1.0925         estimate D2E/DX2                !
 ! R37   R(27,28)                1.0888         estimate D2E/DX2                !
 ! R38   R(31,39)                1.3963         estimate D2E/DX2                !
 ! R39   R(31,43)                1.3962         estimate D2E/DX2                !
 ! R40   R(31,63)                1.0862         estimate D2E/DX2                !
 ! R41   R(32,38)                1.4012         estimate D2E/DX2                !
 ! R42   R(32,44)                1.401          estimate D2E/DX2                !
 ! R43   R(32,62)                1.0931         estimate D2E/DX2                !
 ! R44   R(33,34)                1.488          estimate D2E/DX2                !
 ! R45   R(34,35)                1.3722         estimate D2E/DX2                !
 ! R46   R(34,39)                1.4471         estimate D2E/DX2                !
 ! R47   R(35,36)                1.4258         estimate D2E/DX2                !
 ! R48   R(35,40)                1.0925         estimate D2E/DX2                !
 ! R49   R(36,37)                1.3659         estimate D2E/DX2                !
 ! R50   R(36,41)                1.0916         estimate D2E/DX2                !
 ! R51   R(37,38)                1.4322         estimate D2E/DX2                !
 ! R52   R(37,42)                1.0924         estimate D2E/DX2                !
 ! R53   R(38,39)                1.4358         estimate D2E/DX2                !
 ! R54   R(43,44)                1.4354         estimate D2E/DX2                !
 ! R55   R(43,48)                1.4468         estimate D2E/DX2                !
 ! R56   R(44,45)                1.4323         estimate D2E/DX2                !
 ! R57   R(45,46)                1.3659         estimate D2E/DX2                !
 ! R58   R(45,49)                1.0924         estimate D2E/DX2                !
 ! R59   R(46,47)                1.4258         estimate D2E/DX2                !
 ! R60   R(46,50)                1.0916         estimate D2E/DX2                !
 ! R61   R(47,48)                1.372          estimate D2E/DX2                !
 ! R62   R(47,51)                1.0926         estimate D2E/DX2                !
 ! R63   R(48,52)                1.4876         estimate D2E/DX2                !
 ! R64   R(52,54)                1.4008         estimate D2E/DX2                !
 ! R65   R(54,55)                1.0894         estimate D2E/DX2                !
 ! R66   R(57,58)                1.3961         estimate D2E/DX2                !
 ! R67   R(57,60)                1.0918         estimate D2E/DX2                !
 ! R68   R(58,59)                1.091          estimate D2E/DX2                !
 ! A1    A(2,1,4)               92.4193         estimate D2E/DX2                !
 ! A2    A(2,1,6)               89.7631         estimate D2E/DX2                !
 ! A3    A(2,1,13)              90.1286         estimate D2E/DX2                !
 ! A4    A(4,1,6)               89.51           estimate D2E/DX2                !
 ! A5    A(4,1,7)               89.008          estimate D2E/DX2                !
 ! A6    A(4,1,13)              90.4202         estimate D2E/DX2                !
 ! A7    A(6,1,7)               92.7326         estimate D2E/DX2                !
 ! A8    A(7,1,13)              87.3776         estimate D2E/DX2                !
 ! A9    A(1,7,10)             121.5813         estimate D2E/DX2                !
 ! A10   A(1,7,25)             120.7988         estimate D2E/DX2                !
 ! A11   A(10,7,25)            117.5203         estimate D2E/DX2                !
 ! A12   A(9,8,11)             121.5038         estimate D2E/DX2                !
 ! A13   A(9,8,25)             119.487          estimate D2E/DX2                !
 ! A14   A(11,8,25)            119.0003         estimate D2E/DX2                !
 ! A15   A(8,9,12)             120.7943         estimate D2E/DX2                !
 ! A16   A(8,9,33)             118.9825         estimate D2E/DX2                !
 ! A17   A(12,9,33)            120.2227         estimate D2E/DX2                !
 ! A18   A(7,10,33)            124.3709         estimate D2E/DX2                !
 ! A19   A(7,10,56)            116.7727         estimate D2E/DX2                !
 ! A20   A(33,10,56)           118.8563         estimate D2E/DX2                !
 ! A21   A(14,15,16)           119.0034         estimate D2E/DX2                !
 ! A22   A(14,15,18)           119.9154         estimate D2E/DX2                !
 ! A23   A(16,15,18)           121.0796         estimate D2E/DX2                !
 ! A24   A(15,16,17)           119.1355         estimate D2E/DX2                !
 ! A25   A(15,16,19)           120.0966         estimate D2E/DX2                !
 ! A26   A(17,16,19)           120.767          estimate D2E/DX2                !
 ! A27   A(16,17,29)           119.7468         estimate D2E/DX2                !
 ! A28   A(16,17,57)           120.025          estimate D2E/DX2                !
 ! A29   A(29,17,57)           120.2278         estimate D2E/DX2                !
 ! A30   A(15,18,20)           120.0827         estimate D2E/DX2                !
 ! A31   A(15,18,58)           119.0575         estimate D2E/DX2                !
 ! A32   A(20,18,58)           120.8565         estimate D2E/DX2                !
 ! A33   A(18,20,61)           161.4839         estimate D2E/DX2                !
 ! A34   A(27,21,54)           117.2833         estimate D2E/DX2                !
 ! A35   A(23,22,24)           121.2044         estimate D2E/DX2                !
 ! A36   A(23,22,27)           119.2867         estimate D2E/DX2                !
 ! A37   A(24,22,27)           119.4923         estimate D2E/DX2                !
 ! A38   A(22,23,52)           118.9752         estimate D2E/DX2                !
 ! A39   A(22,23,53)           120.7387         estimate D2E/DX2                !
 ! A40   A(52,23,53)           120.2833         estimate D2E/DX2                !
 ! A41   A(7,25,8)             122.3984         estimate D2E/DX2                !
 ! A42   A(7,25,26)            117.9945         estimate D2E/DX2                !
 ! A43   A(8,25,26)            119.5931         estimate D2E/DX2                !
 ! A44   A(21,27,22)           122.7663         estimate D2E/DX2                !
 ! A45   A(21,27,28)           116.9888         estimate D2E/DX2                !
 ! A46   A(22,27,28)           120.2449         estimate D2E/DX2                !
 ! A47   A(39,31,43)           122.5732         estimate D2E/DX2                !
 ! A48   A(39,31,63)           118.7014         estimate D2E/DX2                !
 ! A49   A(43,31,63)           118.7224         estimate D2E/DX2                !
 ! A50   A(38,32,44)           121.9181         estimate D2E/DX2                !
 ! A51   A(38,32,62)           119.0311         estimate D2E/DX2                !
 ! A52   A(44,32,62)           119.0433         estimate D2E/DX2                !
 ! A53   A(9,33,10)            117.017          estimate D2E/DX2                !
 ! A54   A(9,33,34)            122.6436         estimate D2E/DX2                !
 ! A55   A(10,33,34)           120.3393         estimate D2E/DX2                !
 ! A56   A(33,34,35)           120.9055         estimate D2E/DX2                !
 ! A57   A(33,34,39)           119.9769         estimate D2E/DX2                !
 ! A58   A(35,34,39)           119.0751         estimate D2E/DX2                !
 ! A59   A(34,35,36)           121.3275         estimate D2E/DX2                !
 ! A60   A(34,35,40)           119.6412         estimate D2E/DX2                !
 ! A61   A(36,35,40)           118.9895         estimate D2E/DX2                !
 ! A62   A(35,36,37)           120.7414         estimate D2E/DX2                !
 ! A63   A(35,36,41)           118.9992         estimate D2E/DX2                !
 ! A64   A(37,36,41)           120.2323         estimate D2E/DX2                !
 ! A65   A(36,37,38)           120.495          estimate D2E/DX2                !
 ! A66   A(36,37,42)           120.6875         estimate D2E/DX2                !
 ! A67   A(38,37,42)           118.8161         estimate D2E/DX2                !
 ! A68   A(32,38,37)           122.2207         estimate D2E/DX2                !
 ! A69   A(32,38,39)           119.0272         estimate D2E/DX2                !
 ! A70   A(37,38,39)           118.7494         estimate D2E/DX2                !
 ! A71   A(31,39,34)           122.0913         estimate D2E/DX2                !
 ! A72   A(31,39,38)           118.4505         estimate D2E/DX2                !
 ! A73   A(34,39,38)           119.4507         estimate D2E/DX2                !
 ! A74   A(31,43,44)           118.5268         estimate D2E/DX2                !
 ! A75   A(31,43,48)           122.084          estimate D2E/DX2                !
 ! A76   A(44,43,48)           119.3819         estimate D2E/DX2                !
 ! A77   A(32,44,43)           118.9754         estimate D2E/DX2                !
 ! A78   A(32,44,45)           122.2716         estimate D2E/DX2                !
 ! A79   A(43,44,45)           118.75           estimate D2E/DX2                !
 ! A80   A(44,45,46)           120.5471         estimate D2E/DX2                !
 ! A81   A(44,45,49)           118.7909         estimate D2E/DX2                !
 ! A82   A(46,45,49)           120.6607         estimate D2E/DX2                !
 ! A83   A(45,46,47)           120.7091         estimate D2E/DX2                !
 ! A84   A(45,46,50)           120.2436         estimate D2E/DX2                !
 ! A85   A(47,46,50)           119.0227         estimate D2E/DX2                !
 ! A86   A(46,47,48)           121.263          estimate D2E/DX2                !
 ! A87   A(46,47,51)           119.0099         estimate D2E/DX2                !
 ! A88   A(48,47,51)           119.6877         estimate D2E/DX2                !
 ! A89   A(43,48,47)           119.2029         estimate D2E/DX2                !
 ! A90   A(43,48,52)           119.7976         estimate D2E/DX2                !
 ! A91   A(47,48,52)           120.9633         estimate D2E/DX2                !
 ! A92   A(23,52,48)           122.6227         estimate D2E/DX2                !
 ! A93   A(23,52,54)           117.0815         estimate D2E/DX2                !
 ! A94   A(48,52,54)           120.2928         estimate D2E/DX2                !
 ! A95   A(21,54,52)           124.4            estimate D2E/DX2                !
 ! A96   A(21,54,55)           116.8216         estimate D2E/DX2                !
 ! A97   A(52,54,55)           118.7774         estimate D2E/DX2                !
 ! A98   A(17,57,58)           120.568          estimate D2E/DX2                !
 ! A99   A(17,57,60)           119.7183         estimate D2E/DX2                !
 ! A100  A(58,57,60)           119.7135         estimate D2E/DX2                !
 ! A101  A(18,58,57)           120.1343         estimate D2E/DX2                !
 ! A102  A(18,58,59)           119.6795         estimate D2E/DX2                !
 ! A103  A(57,58,59)           120.1849         estimate D2E/DX2                !
 ! A104  L(2,1,7,4,-1)         181.4273         estimate D2E/DX2                !
 ! A105  L(6,1,13,2,-1)        179.8916         estimate D2E/DX2                !
 ! A106  L(1,2,3,15,-1)        180.145          estimate D2E/DX2                !
 ! A107  L(1,4,5,8,-1)         180.3572         estimate D2E/DX2                !
 ! A108  L(1,6,30,10,-1)       181.4736         estimate D2E/DX2                !
 ! A109  L(1,13,14,8,-1)       181.8681         estimate D2E/DX2                !
 ! A110  L(13,14,15,11,-1)     180.8837         estimate D2E/DX2                !
 ! A111  L(2,1,7,4,-2)         182.4837         estimate D2E/DX2                !
 ! A112  L(6,1,13,2,-2)        179.9255         estimate D2E/DX2                !
 ! A113  L(1,2,3,15,-2)        179.7083         estimate D2E/DX2                !
 ! A114  L(1,4,5,8,-2)         180.9636         estimate D2E/DX2                !
 ! A115  L(1,6,30,10,-2)       178.8265         estimate D2E/DX2                !
 ! A116  L(1,13,14,8,-2)       180.9835         estimate D2E/DX2                !
 ! A117  L(13,14,15,11,-2)     177.0882         estimate D2E/DX2                !
 ! D1    D(4,1,7,10)           119.3336         estimate D2E/DX2                !
 ! D2    D(4,1,7,25)           -64.3847         estimate D2E/DX2                !
 ! D3    D(6,1,7,10)            29.8717         estimate D2E/DX2                !
 ! D4    D(6,1,7,25)          -153.8467         estimate D2E/DX2                !
 ! D5    D(13,1,7,10)         -150.2002         estimate D2E/DX2                !
 ! D6    D(13,1,7,25)           26.0814         estimate D2E/DX2                !
 ! D7    D(2,1,15,16)         -129.4714         estimate D2E/DX2                !
 ! D8    D(2,1,15,18)           47.8476         estimate D2E/DX2                !
 ! D9    D(4,1,15,16)          138.1261         estimate D2E/DX2                !
 ! D10   D(4,1,15,18)          -44.5549         estimate D2E/DX2                !
 ! D11   D(7,1,15,16)           49.1412         estimate D2E/DX2                !
 ! D12   D(7,1,15,18)         -133.5398         estimate D2E/DX2                !
 ! D13   D(1,7,10,33)          170.9216         estimate D2E/DX2                !
 ! D14   D(1,7,10,56)           -8.9834         estimate D2E/DX2                !
 ! D15   D(25,7,10,33)          -5.477          estimate D2E/DX2                !
 ! D16   D(25,7,10,56)         174.6179         estimate D2E/DX2                !
 ! D17   D(1,7,25,8)          -173.9985         estimate D2E/DX2                !
 ! D18   D(1,7,25,26)            7.3667         estimate D2E/DX2                !
 ! D19   D(10,7,25,8)            2.4298         estimate D2E/DX2                !
 ! D20   D(10,7,25,26)        -176.2049         estimate D2E/DX2                !
 ! D21   D(11,8,9,12)           -1.8559         estimate D2E/DX2                !
 ! D22   D(11,8,9,33)          178.3865         estimate D2E/DX2                !
 ! D23   D(25,8,9,12)          177.0438         estimate D2E/DX2                !
 ! D24   D(25,8,9,33)           -2.7138         estimate D2E/DX2                !
 ! D25   D(9,8,25,7)             1.5625         estimate D2E/DX2                !
 ! D26   D(9,8,25,26)         -179.8238         estimate D2E/DX2                !
 ! D27   D(11,8,25,7)         -179.5101         estimate D2E/DX2                !
 ! D28   D(11,8,25,26)          -0.8965         estimate D2E/DX2                !
 ! D29   D(8,9,33,10)            0.0005         estimate D2E/DX2                !
 ! D30   D(8,9,33,34)          179.869          estimate D2E/DX2                !
 ! D31   D(12,9,33,10)        -179.7586         estimate D2E/DX2                !
 ! D32   D(12,9,33,34)           0.1099         estimate D2E/DX2                !
 ! D33   D(7,10,33,9)            4.2798         estimate D2E/DX2                !
 ! D34   D(7,10,33,34)        -175.5919         estimate D2E/DX2                !
 ! D35   D(56,10,33,9)        -175.817          estimate D2E/DX2                !
 ! D36   D(56,10,33,34)          4.3113         estimate D2E/DX2                !
 ! D37   D(14,15,16,17)        179.5419         estimate D2E/DX2                !
 ! D38   D(14,15,16,19)         -0.8052         estimate D2E/DX2                !
 ! D39   D(18,15,16,17)          0.0151         estimate D2E/DX2                !
 ! D40   D(18,15,16,19)        179.6679         estimate D2E/DX2                !
 ! D41   D(14,15,18,20)          1.1726         estimate D2E/DX2                !
 ! D42   D(14,15,18,58)       -179.479          estimate D2E/DX2                !
 ! D43   D(16,15,18,20)       -179.3048         estimate D2E/DX2                !
 ! D44   D(16,15,18,58)          0.0435         estimate D2E/DX2                !
 ! D45   D(15,16,17,29)        179.7425         estimate D2E/DX2                !
 ! D46   D(15,16,17,57)         -0.02           estimate D2E/DX2                !
 ! D47   D(19,16,17,29)          0.092          estimate D2E/DX2                !
 ! D48   D(19,16,17,57)       -179.6705         estimate D2E/DX2                !
 ! D49   D(16,17,57,58)         -0.0337         estimate D2E/DX2                !
 ! D50   D(16,17,57,60)        179.7982         estimate D2E/DX2                !
 ! D51   D(29,17,57,58)       -179.7951         estimate D2E/DX2                !
 ! D52   D(29,17,57,60)          0.0368         estimate D2E/DX2                !
 ! D53   D(15,18,20,61)        -14.4801         estimate D2E/DX2                !
 ! D54   D(58,18,20,61)        166.1834         estimate D2E/DX2                !
 ! D55   D(15,18,58,57)         -0.097          estimate D2E/DX2                !
 ! D56   D(15,18,58,59)       -179.694          estimate D2E/DX2                !
 ! D57   D(20,18,58,57)        179.2461         estimate D2E/DX2                !
 ! D58   D(20,18,58,59)         -0.3509         estimate D2E/DX2                !
 ! D59   D(54,21,27,22)         -2.1613         estimate D2E/DX2                !
 ! D60   D(54,21,27,28)        177.8269         estimate D2E/DX2                !
 ! D61   D(27,21,54,52)          5.2392         estimate D2E/DX2                !
 ! D62   D(27,21,54,55)       -175.1321         estimate D2E/DX2                !
 ! D63   D(24,22,23,52)       -179.0259         estimate D2E/DX2                !
 ! D64   D(24,22,23,53)          1.5767         estimate D2E/DX2                !
 ! D65   D(27,22,23,52)          2.4634         estimate D2E/DX2                !
 ! D66   D(27,22,23,53)       -176.934          estimate D2E/DX2                !
 ! D67   D(23,22,27,21)         -1.5922         estimate D2E/DX2                !
 ! D68   D(23,22,27,28)        178.42           estimate D2E/DX2                !
 ! D69   D(24,22,27,21)        179.8713         estimate D2E/DX2                !
 ! D70   D(24,22,27,28)         -0.1165         estimate D2E/DX2                !
 ! D71   D(22,23,52,48)       -179.0989         estimate D2E/DX2                !
 ! D72   D(22,23,52,54)          0.2732         estimate D2E/DX2                !
 ! D73   D(53,23,52,48)          0.3013         estimate D2E/DX2                !
 ! D74   D(53,23,52,54)        179.6733         estimate D2E/DX2                !
 ! D75   D(43,31,39,34)       -170.8653         estimate D2E/DX2                !
 ! D76   D(43,31,39,38)          8.132          estimate D2E/DX2                !
 ! D77   D(63,31,39,34)          8.4928         estimate D2E/DX2                !
 ! D78   D(63,31,39,38)       -172.5099         estimate D2E/DX2                !
 ! D79   D(39,31,43,44)         -8.0313         estimate D2E/DX2                !
 ! D80   D(39,31,43,48)        170.9761         estimate D2E/DX2                !
 ! D81   D(63,31,43,44)        172.6108         estimate D2E/DX2                !
 ! D82   D(63,31,43,48)         -8.3818         estimate D2E/DX2                !
 ! D83   D(44,32,38,37)        178.1125         estimate D2E/DX2                !
 ! D84   D(44,32,38,39)         -2.4971         estimate D2E/DX2                !
 ! D85   D(62,32,38,37)         -0.883          estimate D2E/DX2                !
 ! D86   D(62,32,38,39)        178.5073         estimate D2E/DX2                !
 ! D87   D(38,32,44,43)          2.6027         estimate D2E/DX2                !
 ! D88   D(38,32,44,45)       -178.0406         estimate D2E/DX2                !
 ! D89   D(62,32,44,43)       -178.4019         estimate D2E/DX2                !
 ! D90   D(62,32,44,45)          0.9548         estimate D2E/DX2                !
 ! D91   D(9,33,34,35)          50.2184         estimate D2E/DX2                !
 ! D92   D(9,33,34,39)        -132.1742         estimate D2E/DX2                !
 ! D93   D(10,33,34,35)       -129.9173         estimate D2E/DX2                !
 ! D94   D(10,33,34,39)         47.6901         estimate D2E/DX2                !
 ! D95   D(33,34,35,36)        176.565          estimate D2E/DX2                !
 ! D96   D(33,34,35,40)         -1.0595         estimate D2E/DX2                !
 ! D97   D(39,34,35,36)         -1.0636         estimate D2E/DX2                !
 ! D98   D(39,34,35,40)       -178.688          estimate D2E/DX2                !
 ! D99   D(33,34,39,31)          5.4677         estimate D2E/DX2                !
 ! D100  D(33,34,39,38)       -173.5198         estimate D2E/DX2                !
 ! D101  D(35,34,39,31)       -176.8812         estimate D2E/DX2                !
 ! D102  D(35,34,39,38)          4.1312         estimate D2E/DX2                !
 ! D103  D(34,35,36,37)         -1.8874         estimate D2E/DX2                !
 ! D104  D(34,35,36,41)       -179.9967         estimate D2E/DX2                !
 ! D105  D(40,35,36,37)        175.7522         estimate D2E/DX2                !
 ! D106  D(40,35,36,41)         -2.3571         estimate D2E/DX2                !
 ! D107  D(35,36,37,38)          1.6784         estimate D2E/DX2                !
 ! D108  D(35,36,37,42)       -177.8773         estimate D2E/DX2                !
 ! D109  D(41,36,37,38)        179.7644         estimate D2E/DX2                !
 ! D110  D(41,36,37,42)          0.2087         estimate D2E/DX2                !
 ! D111  D(36,37,38,32)       -179.1859         estimate D2E/DX2                !
 ! D112  D(36,37,38,39)          1.4221         estimate D2E/DX2                !
 ! D113  D(42,37,38,32)          0.378          estimate D2E/DX2                !
 ! D114  D(42,37,38,39)       -179.014          estimate D2E/DX2                !
 ! D115  D(32,38,39,31)         -2.7395         estimate D2E/DX2                !
 ! D116  D(32,38,39,34)        176.2849         estimate D2E/DX2                !
 ! D117  D(37,38,39,31)        176.6722         estimate D2E/DX2                !
 ! D118  D(37,38,39,34)         -4.3034         estimate D2E/DX2                !
 ! D119  D(31,43,44,32)          2.5309         estimate D2E/DX2                !
 ! D120  D(31,43,44,45)       -176.8487         estimate D2E/DX2                !
 ! D121  D(48,43,44,32)       -176.5039         estimate D2E/DX2                !
 ! D122  D(48,43,44,45)          4.1165         estimate D2E/DX2                !
 ! D123  D(31,43,48,47)        177.0646         estimate D2E/DX2                !
 ! D124  D(31,43,48,52)         -5.103          estimate D2E/DX2                !
 ! D125  D(44,43,48,47)         -3.9363         estimate D2E/DX2                !
 ! D126  D(44,43,48,52)        173.8962         estimate D2E/DX2                !
 ! D127  D(32,44,45,46)        179.2464         estimate D2E/DX2                !
 ! D128  D(32,44,45,49)         -0.337          estimate D2E/DX2                !
 ! D129  D(43,44,45,46)         -1.3955         estimate D2E/DX2                !
 ! D130  D(43,44,45,49)        179.0211         estimate D2E/DX2                !
 ! D131  D(44,45,46,47)         -1.56           estimate D2E/DX2                !
 ! D132  D(44,45,46,50)       -179.7348         estimate D2E/DX2                !
 ! D133  D(49,45,46,47)        178.0157         estimate D2E/DX2                !
 ! D134  D(49,45,46,50)         -0.1591         estimate D2E/DX2                !
 ! D135  D(45,46,47,48)          1.7791         estimate D2E/DX2                !
 ! D136  D(45,46,47,51)       -175.93           estimate D2E/DX2                !
 ! D137  D(50,46,47,48)        179.9759         estimate D2E/DX2                !
 ! D138  D(50,46,47,51)          2.2668         estimate D2E/DX2                !
 ! D139  D(46,47,48,43)          1.0133         estimate D2E/DX2                !
 ! D140  D(46,47,48,52)       -176.7931         estimate D2E/DX2                !
 ! D141  D(51,47,48,43)        178.7072         estimate D2E/DX2                !
 ! D142  D(51,47,48,52)          0.9007         estimate D2E/DX2                !
 ! D143  D(43,48,52,23)        130.9074         estimate D2E/DX2                !
 ! D144  D(43,48,52,54)        -48.4452         estimate D2E/DX2                !
 ! D145  D(47,48,52,23)        -51.2991         estimate D2E/DX2                !
 ! D146  D(47,48,52,54)        129.3484         estimate D2E/DX2                !
 ! D147  D(23,52,54,21)         -4.3241         estimate D2E/DX2                !
 ! D148  D(23,52,54,55)        176.0539         estimate D2E/DX2                !
 ! D149  D(48,52,54,21)        175.0634         estimate D2E/DX2                !
 ! D150  D(48,52,54,55)         -4.5585         estimate D2E/DX2                !
 ! D151  D(17,57,58,18)          0.0934         estimate D2E/DX2                !
 ! D152  D(17,57,58,59)        179.6883         estimate D2E/DX2                !
 ! D153  D(60,57,58,18)       -179.7386         estimate D2E/DX2                !
 ! D154  D(60,57,58,59)         -0.1437         estimate D2E/DX2                !
 --------------------------------------------------------------------------------
 Trust Radius=3.00D-01 FncErr=1.00D-07 GrdErr=1.00D-06 EigMax=2.50D+02 EigMin=1.00D-04
 Number of steps in this run=    349 maximum allowed number of steps=    378.
 GradGradGradGradGradGradGradGradGradGradGradGradGradGradGradGradGradGrad

 Stoichiometry    C34H21BrMnN3O3
 Framework group  C1[X(C34H21BrMnN3O3)]
 Deg. of freedom   183
 Full point group                 C1      NOp   1
 Largest Abelian subgroup         C1      NOp   1
 Largest concise Abelian subgroup C1      NOp   1
                         Standard orientation:                         
 ---------------------------------------------------------------------
 Center     Atomic      Atomic             Coordinates (Angstroms)
 Number     Number       Type             X           Y           Z
 ---------------------------------------------------------------------
      1         25           0       -1.051181   -0.412352   -1.123463
      2          6           0       -2.019459    0.561919   -2.331238
      3          8           0       -2.619217    1.173935   -3.086356
      4          6           0       -2.003275   -1.942325   -1.476950
      5          8           0       -2.582249   -2.896141   -1.711333
      6          6           0        0.125139   -0.859245   -2.438414
      7          7           0        0.059051   -1.495599    0.380430
      8          6           0        0.143145   -2.572891    2.518006
      9          6           0        1.530160   -2.648012    2.458665
     10          6           0        1.386379   -1.646894    0.298550
     11          1           0       -0.411958   -2.954063    3.375648
     12          1           0        2.103483   -3.066545    3.288714
     13          7           0       -2.360298    0.083586    0.332981
     14          6           0       -3.137410    0.374101    1.135210
     15          6           0       -4.065890    0.799055    2.137186
     16          6           0       -3.574051    1.330188    3.338842
     17          6           0       -4.474147    1.752984    4.310728
     18          6           0       -5.444340    0.689890    1.904592
     19          1           0       -2.498186    1.402717    3.505157
     20          1           0       -5.808790    0.264039    0.969223
     21          7           0        0.045903    1.388456   -0.596342
     22          6           0        0.122835    3.542111    0.454749
     23          6           0        1.508280    3.583864    0.333435
     24          1           0       -0.427741    4.356938    0.925233
     25          6           0       -0.554831   -1.979410    1.473702
     26          1           0       -1.644526   -1.916862    1.519870
     27          6           0       -0.565585    2.428223   -0.004740
     28          1           0       -1.647132    2.367863    0.105601
     29          1           0       -4.102508    2.163771    5.250784
     30          8           0        0.836563   -1.149958   -3.286857
     31          6           0        3.736921    0.190212    0.525731
     32          6           0        6.449768    0.002255   -0.058756
     33          6           0        2.185934   -2.173849    1.319083
     34          6           0        3.666017   -2.211793    1.170580
     35          6           0        4.368625   -3.366747    1.406097
     36          6           0        5.777390   -3.433144    1.196927
     37          6           0        6.463655   -2.353943    0.717427
     38          6           0        5.784883   -1.121708    0.449105
     39          6           0        4.378166   -1.034368    0.722821
     40          1           0        3.837475   -4.267077    1.723662
     41          1           0        6.298376   -4.371485    1.396327
     42          1           0        7.537126   -2.416511    0.524916
     43          6           0        4.366547    1.279601   -0.079370
     44          6           0        5.772487    1.192262   -0.355448
     45          6           0        6.437133    2.331831   -0.913150
     46          6           0        5.739121    3.469591   -1.203100
     47          6           0        4.331175    3.534825   -0.987854
     48          6           0        3.642957    2.475729   -0.451986
     49          1           0        7.510249    2.271618   -1.108449
     50          1           0        6.249888    4.333704   -1.632063
     51          1           0        3.789807    4.433911   -1.291673
     52          6           0        2.164378    2.524115   -0.295685
     53          1           0        2.078280    4.425881    0.731541
     54          6           0        1.368478    1.475834   -0.775174
     55          1           0        1.844288    0.666574   -1.327825
     56          1           0        1.859814   -1.332315   -0.631051
     57          6           0       -5.847352    1.646729    4.084420
     58          6           0       -6.330615    1.118301    2.886002
     59          1           0       -7.405246    1.033426    2.717741
     60          1           0       -6.549616    1.977180    4.852316
     61         35           0       -5.898648   -0.854775   -2.124994
     62          1           0        7.525444   -0.056465   -0.243962
     63          1           0        2.704608    0.296077    0.846596
 ---------------------------------------------------------------------
 Rotational constants (GHZ):           0.1123694           0.0403982           0.0398619
 General basis read from cards:  (5D, 7F)
 There are   802 symmetry adapted cartesian basis functions of A   symmetry.
 There are   751 symmetry adapted basis functions of A   symmetry.
   751 basis functions,  1339 primitive gaussians,   802 cartesian basis functions
   165 alpha electrons      165 beta electrons
       nuclear repulsion energy      5783.2472490683 Hartrees.
 NAtoms=   63 NActive=   63 NUniq=   63 SFac= 1.00D+00 NAtFMM=   60 NAOKFM=T Big=T
 Integral buffers will be    131072 words long.
 Raffenetti 2 integral format.
 Two-electron integral symmetry is turned on.
 Nuclear repulsion after empirical dispersion term =     5783.1844197686 Hartrees.
 ------------------------------------------------------------------------------
 Polarizable Continuum Model (PCM)
 =================================
 Model                : PCM.
 Atomic radii         : UFF (Universal Force Field).
 Polarization charges : Total charges.
 Charge compensation  : None.
 Solution method      : On-the-fly selection.
 Cavity type          : Scaled VdW (van der Waals Surface) (Alpha=1.100).
 Cavity algorithm     : GePol (No added spheres)
                        Default sphere list used, NSphG=   63.
                        Lebedev-Laikov grids with approx.  5.0 points / Ang**2.
                        Smoothing algorithm: York/Karplus (Gamma=1.0000).
                        Polarization charges: spherical gaussians, with
                                              point-specific exponents (IZeta= 3).
                        Self-potential: point-specific (ISelfS= 7).
                        Self-field    : sphere-specific E.n sum rule (ISelfD= 2).
 1st derivatives      : Analytical E(r).r(x)/FMM algorithm (CHGder, D1EAlg=3).
                        Cavity 1st derivative terms included.
 Solvent              : TetraHydroFuran, Eps=   7.425700 Eps(inf)=   1.974025
 ------------------------------------------------------------------------------
 One-electron integrals computed using PRISM.
 PrsmSu:  requested number of processors reduced to:  11 ShMem   1 Linda.
 NBasis=   751 RedAO= T EigKep=  2.22D-04  NBF=   751
 NBsUse=   751 1.00D-06 EigRej= -1.00D+00 NBFU=   751
 ExpMin= 3.93D-02 ExpMax= 2.77D+05 ExpMxC= 1.70D+04 IAcc=3 IRadAn=         5 AccDes= 0.00D+00
 Harris functional with IExCor= 4639 and IRadAn=       5 diagonalized for initial guess.
 HarFok:  IExCor= 4639 AccDes= 0.00D+00 IRadAn=         5 IDoV= 1 UseB2=F ITyADJ=14
 ICtDFT=  3500011 ScaDFX=  1.000000  1.000000  1.000000  1.000000
 FoFCou: FMM=F IPFlag=           0 FMFlag=      100000 FMFlg1=        2001
         NFxFlg=           0 DoJE=T BraDBF=F KetDBF=T FulRan=T
         wScrn=  0.000000 ICntrl=       500 IOpCl=  0 I1Cent=   200000004 NGrid=           0
         NMat0=    1 NMatS0=      1 NMatT0=    0 NMatD0=    1 NMtDS0=    0 NMtDT0=    0
 Petite list used in FoFCou.
 Requested convergence on RMS density matrix=1.00D-08 within 128 cycles.
 Requested convergence on MAX density matrix=1.00D-06.
 Requested convergence on             energy=1.00D-06.
 No special actions if energy rises.
 CoulSu:  requested number of processors reduced to:   8 ShMem   1 Linda.
 Inv3:  Mode=1 IEnd=    73626348.
 Iteration    1 A*A^-1 deviation from unit magnitude is 3.33D-15 for   3738.
 Iteration    1 A*A^-1 deviation from orthogonality  is 2.71D-15 for   4368   2538.
 Iteration    1 A^-1*A deviation from unit magnitude is 3.33D-15 for   3738.
 Iteration    1 A^-1*A deviation from orthogonality  is 3.33D-15 for   4277    359.
 CoulSu:  requested number of processors reduced to:   8 ShMem   1 Linda.
 CoulSu:  requested number of processors reduced to:   8 ShMem   1 Linda.
 Error on total polarization charges =  0.02435
 SCF Done:  E(RwB97XD) =  -5421.47525255     A.U. after   18 cycles
            NFock= 18  Conv=0.74D-08     -V/T= 2.0041

 **********************************************************************

            Population analysis using the SCF density.

 **********************************************************************

 Orbital symmetries:
       Occupied  (A) (A) (A) (A) (A) (A) (A) (A) (A) (A) (A) (A)
                 (A) (A) (A) (A) (A) (A) (A) (A) (A) (A) (A) (A)
                 (A) (A) (A) (A) (A) (A) (A) (A) (A) (A) (A) (A)
                 (A) (A) (A) (A) (A) (A) (A) (A) (A) (A) (A) (A)
                 (A) (A) (A) (A) (A) (A) (A) (A) (A) (A) (A) (A)
                 (A) (A) (A) (A) (A) (A) (A) (A) (A) (A) (A) (A)
                 (A) (A) (A) (A) (A) (A) (A) (A) (A) (A) (A) (A)
                 (A) (A) (A) (A) (A) (A) (A) (A) (A) (A) (A) (A)
                 (A) (A) (A) (A) (A) (A) (A) (A) (A) (A) (A) (A)
                 (A) (A) (A) (A) (A) (A) (A) (A) (A) (A) (A) (A)
                 (A) (A) (A) (A) (A) (A) (A) (A) (A) (A) (A) (A)
                 (A) (A) (A) (A) (A) (A) (A) (A) (A) (A) (A) (A)
                 (A) (A) (A) (A) (A) (A) (A) (A) (A) (A) (A) (A)
                 (A) (A) (A) (A) (A) (A) (A) (A) (A)
       Virtual   (A) (A) (A) (A) (A) (A) (A) (A) (A) (A) (A) (A)
                 (A) (A) (A) (A) (A) (A) (A) (A) (A) (A) (A) (A)
                 (A) (A) (A) (A) (A) (A) (A) (A) (A) (A) (A) (A)
                 (A) (A) (A) (A) (A) (A) (A) (A) (A) (A) (A) (A)
                 (A) (A) (A) (A) (A) (A) (A) (A) (A) (A) (A) (A)
                 (A) (A) (A) (A) (A) (A) (A) (A) (A) (A) (A) (A)
                 (A) (A) (A) (A) (A) (A) (A) (A) (A) (A) (A) (A)
                 (A) (A) (A) (A) (A) (A) (A) (A) (A) (A) (A) (A)
                 (A) (A) (A) (A) (A) (A) (A) (A) (A) (A) (A) (A)
                 (A) (A) (A) (A) (A) (A) (A) (A) (A) (A) (A) (A)
                 (A) (A) (A) (A) (A) (A) (A) (A) (A) (A) (A) (A)
                 (A) (A) (A) (A) (A) (A) (A) (A) (A) (A) (A) (A)
                 (A) (A) (A) (A) (A) (A) (A) (A) (A) (A) (A) (A)
                 (A) (A) (A) (A) (A) (A) (A) (A) (A) (A) (A) (A)
                 (A) (A) (A) (A) (A) (A) (A) (A) (A) (A) (A) (A)
                 (A) (A) (A) (A) (A) (A) (A) (A) (A) (A) (A) (A)
                 (A) (A) (A) (A) (A) (A) (A) (A) (A) (A) (A) (A)
                 (A) (A) (A) (A) (A) (A) (A) (A) (A) (A) (A) (A)
                 (A) (A) (A) (A) (A) (A) (A) (A) (A) (A) (A) (A)
                 (A) (A) (A) (A) (A) (A) (A) (A) (A) (A) (A) (A)
                 (A) (A) (A) (A) (A) (A) (A) (A) (A) (A) (A) (A)
                 (A) (A) (A) (A) (A) (A) (A) (A) (A) (A) (A) (A)
                 (A) (A) (A) (A) (A) (A) (A) (A) (A) (A) (A) (A)
                 (A) (A) (A) (A) (A) (A) (A) (A) (A) (A) (A) (A)
                 (A) (A) (A) (A) (A) (A) (A) (A) (A) (A) (A) (A)
                 (A) (A) (A) (A) (A) (A) (A) (A) (A) (A) (A) (A)
                 (A) (A) (A) (A) (A) (A) (A) (A) (A) (A) (A) (A)
                 (A) (A) (A) (A) (A) (A) (A) (A) (A) (A) (A) (A)
                 (A) (A) (A) (A) (A) (A) (A) (A) (A) (A) (A) (A)
                 (A) (A) (A) (A) (A) (A) (A) (A) (A) (A) (A) (A)
                 (A) (A) (A) (A) (A) (A) (A) (A) (A) (A) (A) (A)
                 (A) (A) (A) (A) (A) (A) (A) (A) (A) (A) (A) (A)
                 (A) (A) (A) (A) (A) (A) (A) (A) (A) (A) (A) (A)
                 (A) (A) (A) (A) (A) (A) (A) (A) (A) (A) (A) (A)
                 (A) (A) (A) (A) (A) (A) (A) (A) (A) (A) (A) (A)
                 (A) (A) (A) (A) (A) (A) (A) (A) (A) (A) (A) (A)
                 (A) (A) (A) (A) (A) (A) (A) (A) (A) (A) (A) (A)
                 (A) (A) (A) (A) (A) (A) (A) (A) (A) (A) (A) (A)
                 (A) (A) (A) (A) (A) (A) (A) (A) (A) (A) (A) (A)
                 (A) (A) (A) (A) (A) (A) (A) (A) (A) (A) (A) (A)
                 (A) (A) (A) (A) (A) (A) (A) (A) (A) (A) (A) (A)
                 (A) (A) (A) (A) (A) (A) (A) (A) (A) (A) (A) (A)
                 (A) (A) (A) (A) (A) (A) (A) (A) (A) (A) (A) (A)
                 (A) (A) (A) (A) (A) (A) (A) (A) (A) (A) (A) (A)
                 (A) (A) (A) (A) (A) (A) (A) (A) (A) (A) (A) (A)
                 (A) (A) (A) (A) (A) (A) (A) (A) (A) (A) (A) (A)
                 (A) (A) (A) (A) (A) (A) (A) (A) (A) (A) (A) (A)
                 (A) (A) (A) (A) (A) (A) (A) (A) (A) (A) (A) (A)
                 (A) (A) (A) (A) (A) (A) (A) (A) (A) (A)
 The electronic state is 1-A.
 Alpha  occ. eigenvalues -- -482.95001-235.70705 -62.53073 -56.33626 -56.33622
 Alpha  occ. eigenvalues --  -56.33620 -27.47722 -23.53524 -23.53282 -23.53268
 Alpha  occ. eigenvalues --  -19.34916 -19.34542 -19.34412 -14.51080 -14.51045
 Alpha  occ. eigenvalues --  -14.50464 -10.42332 -10.42095 -10.42009 -10.39631
 Alpha  occ. eigenvalues --  -10.37307 -10.37298 -10.36876 -10.36806 -10.36387
 Alpha  occ. eigenvalues --  -10.34895 -10.34866 -10.34753 -10.34741 -10.34184
 Alpha  occ. eigenvalues --  -10.33679 -10.33663 -10.33661 -10.33643 -10.33638
 Alpha  occ. eigenvalues --  -10.33338 -10.33326 -10.33142 -10.32956 -10.32950
 Alpha  occ. eigenvalues --  -10.32826 -10.32587 -10.32434 -10.32423 -10.32199
 Alpha  occ. eigenvalues --  -10.32091 -10.32077 -10.32070 -10.31919 -10.31915
 Alpha  occ. eigenvalues --   -8.69842  -6.51527  -6.51514  -6.51506  -3.26952
 Alpha  occ. eigenvalues --   -2.62032  -2.62030  -2.62024  -2.62014  -2.62013
 Alpha  occ. eigenvalues --   -2.12534  -2.11974  -2.11957  -1.23824  -1.23510
 Alpha  occ. eigenvalues --   -1.23287  -1.08771  -1.08428  -1.05756  -1.00404
 Alpha  occ. eigenvalues --   -0.98737  -0.97743  -0.94650  -0.93468  -0.91493
 Alpha  occ. eigenvalues --   -0.91048  -0.90055  -0.89103  -0.87621  -0.86941
 Alpha  occ. eigenvalues --   -0.85381  -0.85097  -0.82003  -0.76932  -0.76018
 Alpha  occ. eigenvalues --   -0.75840  -0.75631  -0.75604  -0.74519  -0.74105
 Alpha  occ. eigenvalues --   -0.72560  -0.72443  -0.70449  -0.69121  -0.68639
 Alpha  occ. eigenvalues --   -0.66456  -0.65353  -0.65248  -0.65111  -0.64687
 Alpha  occ. eigenvalues --   -0.64642  -0.62842  -0.62341  -0.61309  -0.60485
 Alpha  occ. eigenvalues --   -0.60420  -0.59036  -0.58086  -0.57913  -0.57855
 Alpha  occ. eigenvalues --   -0.57267  -0.57094  -0.56629  -0.56531  -0.56087
 Alpha  occ. eigenvalues --   -0.55942  -0.55450  -0.55255  -0.55053  -0.54705
 Alpha  occ. eigenvalues --   -0.54482  -0.54463  -0.53961  -0.53531  -0.53446
 Alpha  occ. eigenvalues --   -0.52654  -0.52568  -0.52521  -0.52355  -0.51710
 Alpha  occ. eigenvalues --   -0.51395  -0.51308  -0.51058  -0.50944  -0.49454
 Alpha  occ. eigenvalues --   -0.49051  -0.48807  -0.48107  -0.47712  -0.47422
 Alpha  occ. eigenvalues --   -0.46752  -0.46495  -0.45096  -0.45009  -0.43849
 Alpha  occ. eigenvalues --   -0.43580  -0.42595  -0.41837  -0.41305  -0.40845
 Alpha  occ. eigenvalues --   -0.40480  -0.39786  -0.38003  -0.36971  -0.36653
 Alpha  occ. eigenvalues --   -0.36090  -0.33975  -0.33422  -0.32846  -0.32375
 Alpha  occ. eigenvalues --   -0.32358  -0.29344  -0.29296  -0.29245  -0.28122
 Alpha virt. eigenvalues --   -0.03162  -0.01141  -0.00090  -0.00002   0.01389
 Alpha virt. eigenvalues --    0.01660   0.02380   0.03297   0.03528   0.03960
 Alpha virt. eigenvalues --    0.04795   0.06238   0.06599   0.07088   0.07590
 Alpha virt. eigenvalues --    0.08883   0.09182   0.09840   0.10065   0.10324
 Alpha virt. eigenvalues --    0.11428   0.12359   0.12674   0.13036   0.14297
 Alpha virt. eigenvalues --    0.14396   0.14653   0.14985   0.15137   0.15419
 Alpha virt. eigenvalues --    0.15616   0.15969   0.17217   0.17775   0.18176
 Alpha virt. eigenvalues --    0.18485   0.19069   0.19518   0.20032   0.20313
 Alpha virt. eigenvalues --    0.20477   0.21096   0.21461   0.22011   0.22190
 Alpha virt. eigenvalues --    0.22842   0.22843   0.23263   0.23366   0.24402
 Alpha virt. eigenvalues --    0.24712   0.24938   0.25843   0.26254   0.26320
 Alpha virt. eigenvalues --    0.27356   0.27493   0.28019   0.29312   0.29829
 Alpha virt. eigenvalues --    0.29940   0.30335   0.30457   0.31361   0.31950
 Alpha virt. eigenvalues --    0.32314   0.32691   0.32888   0.33352   0.33564
 Alpha virt. eigenvalues --    0.33672   0.34315   0.34620   0.34836   0.35326
 Alpha virt. eigenvalues --    0.35939   0.36248   0.36381   0.36492   0.37043
 Alpha virt. eigenvalues --    0.37276   0.38223   0.38366   0.39397   0.39899
 Alpha virt. eigenvalues --    0.40207   0.40640   0.41377   0.41971   0.41985
 Alpha virt. eigenvalues --    0.42248   0.42297   0.43577   0.43810   0.44488
 Alpha virt. eigenvalues --    0.44942   0.45823   0.46227   0.46592   0.46725
 Alpha virt. eigenvalues --    0.47010   0.47183   0.47535   0.47920   0.49054
 Alpha virt. eigenvalues --    0.49077   0.49816   0.50241   0.50948   0.51450
 Alpha virt. eigenvalues --    0.51576   0.51806   0.52011   0.52138   0.52408
 Alpha virt. eigenvalues --    0.52465   0.53341   0.53575   0.54202   0.54337
 Alpha virt. eigenvalues --    0.54650   0.54825   0.55050   0.55193   0.55714
 Alpha virt. eigenvalues --    0.56046   0.56412   0.56635   0.56762   0.57486
 Alpha virt. eigenvalues --    0.57822   0.58045   0.58095   0.59321   0.59685
 Alpha virt. eigenvalues --    0.60181   0.60270   0.61020   0.61764   0.61862
 Alpha virt. eigenvalues --    0.61968   0.62453   0.62552   0.63214   0.63747
 Alpha virt. eigenvalues --    0.64392   0.64736   0.65779   0.66333   0.66808
 Alpha virt. eigenvalues --    0.67254   0.67421   0.67506   0.67668   0.68029
 Alpha virt. eigenvalues --    0.68809   0.68940   0.70054   0.70284   0.70651
 Alpha virt. eigenvalues --    0.70824   0.71738   0.71786   0.71862   0.72203
 Alpha virt. eigenvalues --    0.72694   0.72812   0.73107   0.73196   0.73418
 Alpha virt. eigenvalues --    0.73788   0.74068   0.74319   0.74450   0.74753
 Alpha virt. eigenvalues --    0.74987   0.75590   0.75869   0.75995   0.76523
 Alpha virt. eigenvalues --    0.76914   0.77089   0.77377   0.77498   0.78079
 Alpha virt. eigenvalues --    0.78687   0.78825   0.79257   0.79748   0.79856
 Alpha virt. eigenvalues --    0.80258   0.80418   0.80775   0.81102   0.81316
 Alpha virt. eigenvalues --    0.81416   0.82432   0.82758   0.83053   0.83413
 Alpha virt. eigenvalues --    0.84032   0.84073   0.84645   0.84853   0.85083
 Alpha virt. eigenvalues --    0.85168   0.85420   0.85667   0.86351   0.86454
 Alpha virt. eigenvalues --    0.86543   0.87252   0.87464   0.87847   0.88138
 Alpha virt. eigenvalues --    0.88245   0.88472   0.88693   0.89395   0.89922
 Alpha virt. eigenvalues --    0.90469   0.90907   0.91005   0.91147   0.91335
 Alpha virt. eigenvalues --    0.92571   0.92817   0.93492   0.93804   0.94295
 Alpha virt. eigenvalues --    0.94609   0.95805   0.96410   0.96711   0.97235
 Alpha virt. eigenvalues --    0.97574   0.97636   0.99033   0.99559   1.00229
 Alpha virt. eigenvalues --    1.00751   1.01976   1.03378   1.03954   1.05245
 Alpha virt. eigenvalues --    1.06009   1.07306   1.07856   1.08271   1.09295
 Alpha virt. eigenvalues --    1.11005   1.11732   1.12173   1.13581   1.14091
 Alpha virt. eigenvalues --    1.14392   1.14716   1.15720   1.15947   1.16284
 Alpha virt. eigenvalues --    1.16583   1.18062   1.18967   1.19672   1.21237
 Alpha virt. eigenvalues --    1.22024   1.22708   1.24276   1.24602   1.25264
 Alpha virt. eigenvalues --    1.25461   1.26085   1.27025   1.27248   1.27950
 Alpha virt. eigenvalues --    1.28179   1.28613   1.29028   1.29419   1.29859
 Alpha virt. eigenvalues --    1.30076   1.30378   1.30456   1.31120   1.31492
 Alpha virt. eigenvalues --    1.31907   1.32391   1.33117   1.33343   1.33725
 Alpha virt. eigenvalues --    1.33802   1.34615   1.34863   1.35298   1.35523
 Alpha virt. eigenvalues --    1.35895   1.36178   1.36266   1.36805   1.36826
 Alpha virt. eigenvalues --    1.37230   1.38882   1.39016   1.40401   1.40446
 Alpha virt. eigenvalues --    1.41785   1.42702   1.43561   1.44333   1.45371
 Alpha virt. eigenvalues --    1.46489   1.48379   1.48713   1.49727   1.50226
 Alpha virt. eigenvalues --    1.53815   1.53839   1.55512   1.59015   1.59245
 Alpha virt. eigenvalues --    1.59986   1.61612   1.63021   1.63294   1.64915
 Alpha virt. eigenvalues --    1.65097   1.65853   1.66084   1.66875   1.67819
 Alpha virt. eigenvalues --    1.68989   1.69740   1.70409   1.71418   1.72016
 Alpha virt. eigenvalues --    1.72680   1.72900   1.73170   1.73308   1.73908
 Alpha virt. eigenvalues --    1.74143   1.74729   1.75186   1.75476   1.76408
 Alpha virt. eigenvalues --    1.76946   1.77091   1.77966   1.78359   1.78464
 Alpha virt. eigenvalues --    1.78588   1.79085   1.79418   1.79535   1.79857
 Alpha virt. eigenvalues --    1.80514   1.80679   1.80801   1.81227   1.81268
 Alpha virt. eigenvalues --    1.81705   1.81817   1.82196   1.82622   1.83034
 Alpha virt. eigenvalues --    1.83239   1.83696   1.84048   1.84376   1.85053
 Alpha virt. eigenvalues --    1.85468   1.85720   1.85984   1.86669   1.87625
 Alpha virt. eigenvalues --    1.87752   1.88109   1.88703   1.89093   1.89518
 Alpha virt. eigenvalues --    1.90213   1.90587   1.91140   1.91339   1.91997
 Alpha virt. eigenvalues --    1.93054   1.94273   1.94597   1.95819   1.96121
 Alpha virt. eigenvalues --    1.97208   1.97383   1.97984   1.98668   1.99739
 Alpha virt. eigenvalues --    2.00707   2.00749   2.01487   2.01927   2.02427
 Alpha virt. eigenvalues --    2.02748   2.02917   2.03629   2.04167   2.04384
 Alpha virt. eigenvalues --    2.04816   2.05139   2.05708   2.06105   2.06213
 Alpha virt. eigenvalues --    2.06989   2.07797   2.09737   2.09840   2.10321
 Alpha virt. eigenvalues --    2.10731   2.11611   2.12406   2.13539   2.13759
 Alpha virt. eigenvalues --    2.14722   2.15268   2.15996   2.16778   2.16865
 Alpha virt. eigenvalues --    2.17354   2.17520   2.18070   2.19274   2.19401
 Alpha virt. eigenvalues --    2.19549   2.20393   2.21036   2.21386   2.22507
 Alpha virt. eigenvalues --    2.23415   2.23767   2.24150   2.24203   2.25824
 Alpha virt. eigenvalues --    2.26071   2.29471   2.29955   2.31011   2.31073
 Alpha virt. eigenvalues --    2.31292   2.31832   2.33109   2.34040   2.34527
 Alpha virt. eigenvalues --    2.34840   2.35292   2.35395   2.35919   2.36763
 Alpha virt. eigenvalues --    2.37240   2.37539   2.37672   2.38621   2.38695
 Alpha virt. eigenvalues --    2.39150   2.40849   2.41757   2.42549   2.42651
 Alpha virt. eigenvalues --    2.43958   2.45054   2.45120   2.45649   2.46607
 Alpha virt. eigenvalues --    2.47260   2.47507   2.49509   2.49840   2.50967
 Alpha virt. eigenvalues --    2.53609   2.54434   2.56219   2.56833   2.58756
 Alpha virt. eigenvalues --    2.59972   2.60353   2.61185   2.63310   2.64585
 Alpha virt. eigenvalues --    2.65664   2.65956   2.66485   2.66721   2.67417
 Alpha virt. eigenvalues --    2.67559   2.68212   2.69196   2.69837   2.69971
 Alpha virt. eigenvalues --    2.69988   2.70381   2.70449   2.70602   2.72149
 Alpha virt. eigenvalues --    2.72322   2.72648   2.74037   2.74592   2.75594
 Alpha virt. eigenvalues --    2.76038   2.78941   2.79269   2.79461   2.79839
 Alpha virt. eigenvalues --    2.80105   2.81108   2.81781   2.82180   2.83991
 Alpha virt. eigenvalues --    2.85123   2.85460   2.85743   2.86990   2.87187
 Alpha virt. eigenvalues --    2.87777   2.90054   2.92073   2.93035   2.94871
 Alpha virt. eigenvalues --    2.95956   2.97588   2.98415   2.99460   3.01487
 Alpha virt. eigenvalues --    3.02045   3.05261   3.05726   3.06232   3.06512
 Alpha virt. eigenvalues --    3.06585   3.08908   3.09430   3.11627   3.11963
 Alpha virt. eigenvalues --    3.15759   3.16267   3.19045   3.19276   3.19763
 Alpha virt. eigenvalues --    3.20717   3.20877   3.21903   3.22632   3.24436
 Alpha virt. eigenvalues --    3.24724   3.29362   3.30492   3.32667   3.32966
 Alpha virt. eigenvalues --    3.37053   3.38428   3.41197   3.46331   3.50204
 Alpha virt. eigenvalues --    3.50932   3.51466   3.52741   3.56089   3.61283
 Alpha virt. eigenvalues --    3.61623   3.61781   3.63145   3.63320   3.63584
 Alpha virt. eigenvalues --    3.65270   3.66219   3.69759   3.71621   3.72404
 Alpha virt. eigenvalues --    3.75115   3.75797   3.76864   3.78393   3.79361
 Alpha virt. eigenvalues --    3.80835   3.91171   3.91947   3.97614   4.04652
 Alpha virt. eigenvalues --    4.07069
          Condensed to atoms (all electrons):
 Mulliken charges:
               1
     1  Mn  -0.728137
     2  C    0.370251
     3  O   -0.037146
     4  C    0.368495
     5  O   -0.032332
     6  C    0.302675
     7  N   -0.211472
     8  C   -0.038866
     9  C    0.052839
    10  C    0.093664
    11  H    0.064164
    12  H    0.056873
    13  N    0.098087
    14  C    0.003740
    15  C   -0.165558
    16  C    0.027950
    17  C   -0.023737
    18  C    0.036640
    19  H    0.049209
    20  H    0.075111
    21  N   -0.209285
    22  C   -0.036331
    23  C    0.053001
    24  H    0.064040
    25  C    0.108421
    26  H    0.078097
    27  C    0.109760
    28  H    0.073442
    29  H    0.054776
    30  O   -0.051726
    31  C   -0.182855
    32  C   -0.080145
    33  C   -0.055276
    34  C    0.059265
    35  C   -0.058800
    36  C   -0.018823
    37  C   -0.017562
    38  C    0.018249
    39  C    0.080396
    40  H    0.035520
    41  H    0.044161
    42  H    0.032286
    43  C    0.080407
    44  C    0.018020
    45  C   -0.017475
    46  C   -0.019063
    47  C   -0.057988
    48  C    0.057495
    49  H    0.032127
    50  H    0.044142
    51  H    0.035528
    52  C   -0.057164
    53  H    0.056696
    54  C    0.092470
    55  H    0.057767
    56  H    0.057761
    57  C   -0.000185
    58  C   -0.019879
    59  H    0.058400
    60  H    0.058427
    61  Br  -1.014243
    62  H    0.021098
    63  H    0.052598
 Sum of Mulliken charges =  -0.00000
 Mulliken charges with hydrogens summed into heavy atoms:
               1
     1  Mn  -0.728137
     2  C    0.370251
     3  O   -0.037146
     4  C    0.368495
     5  O   -0.032332
     6  C    0.302675
     7  N   -0.211472
     8  C    0.025298
     9  C    0.109712
    10  C    0.151425
    13  N    0.098087
    14  C    0.003740
    15  C   -0.165558
    16  C    0.077160
    17  C    0.031039
    18  C    0.111751
    21  N   -0.209285
    22  C    0.027709
    23  C    0.109698
    25  C    0.186518
    27  C    0.183201
    30  O   -0.051726
    31  C   -0.130256
    32  C   -0.059047
    33  C   -0.055276
    34  C    0.059265
    35  C   -0.023279
    36  C    0.025338
    37  C    0.014724
    38  C    0.018249
    39  C    0.080396
    43  C    0.080407
    44  C    0.018020
    45  C    0.014651
    46  C    0.025079
    47  C   -0.022461
    48  C    0.057495
    52  C   -0.057164
    54  C    0.150237
    57  C    0.058242
    58  C    0.038522
    61  Br  -1.014243
 Electronic spatial extent (au):  <R**2>=          27790.6804
 Charge=             -0.0000 electrons
 Dipole moment (field-independent basis, Debye):
    X=             24.8558    Y=              6.8587    Z=             18.1878  Tot=             31.5539
 Quadrupole moment (field-independent basis, Debye-Ang):
   XX=           -339.2672   YY=           -225.1595   ZZ=           -260.4414
   XY=            -33.7969   XZ=            -86.8287   YZ=            -13.5576
 Traceless Quadrupole moment (field-independent basis, Debye-Ang):
   XX=            -64.3112   YY=             49.7966   ZZ=             14.5146
   XY=            -33.7969   XZ=            -86.8287   YZ=            -13.5576
 Octapole moment (field-independent basis, Debye-Ang**2):
  XXX=            830.3733  YYY=             28.9506  ZZZ=             89.8959  XYY=             70.3361
  XXY=            174.2918  XXZ=            440.4995  XZZ=            -32.3213  YZZ=             20.0583
  YYZ=             38.4239  XYZ=            -40.2668
 Hexadecapole moment (field-independent basis, Debye-Ang**3):
 XXXX=         -26565.8191 YYYY=          -5661.7724 ZZZZ=          -5124.5972 XXXY=          -1167.4008
 XXXZ=          -2988.0097 YYYX=             87.5921 YYYZ=           -130.0508 ZZZX=           -437.4643
 ZZZY=            161.0533 XXYY=          -4850.6401 XXZZ=          -5468.0094 YYZZ=          -1808.1421
 XXYZ=           -290.0283 YYXZ=            -19.9345 ZZXY=           -276.7827
 N-N= 5.783184419769D+03 E-N=-2.439169982526D+04  KE= 5.399319152983D+03
 PrsmSu:  requested number of processors reduced to:  11 ShMem   1 Linda.
 D1PCM: PCM CHGder 1st derivatives, ID1Alg=3 FixD1E=F DoIter=F DoCFld=F I1PDM=0.
 CoulSu:  requested number of processors reduced to:   9 ShMem   1 Linda.
 CoulSu:  requested number of processors reduced to:  10 ShMem   1 Linda.
 Calling FoFJK, ICntrl=      2127 FMM=T ISym2X=0 I1Cent= 0 IOpClX= 0 NMat=1 NMatS=1 NMatT=0.
 ***** Axes restored to original set *****
 -------------------------------------------------------------------
 Center     Atomic                   Forces (Hartrees/Bohr)
 Number     Number              X              Y              Z
 -------------------------------------------------------------------
      1       25           0.001527534    0.001199602   -0.001716840
      2        6          -0.003402010   -0.003442676    0.003463792
      3        8           0.002439373    0.002277487   -0.002268599
      4        6          -0.001191431   -0.001336596    0.001836992
      5        8           0.000792634    0.000693821   -0.000798839
      6        6          -0.000253534   -0.000339828    0.000365011
      7        7          -0.001513527    0.000345629   -0.000324048
      8        6          -0.001687315   -0.000577944    0.000364411
      9        6           0.001072472   -0.000137634    0.000181686
     10        6          -0.001054742   -0.000493460    0.000052945
     11        1           0.000645333    0.000250180   -0.000421830
     12        1          -0.000133353   -0.000061037    0.000118749
     13        7           0.000113617    0.001444647    0.000737722
     14        6           0.000030465   -0.002532443    0.000359411
     15        6          -0.000142277    0.000926035    0.000423076
     16        6           0.000049027    0.000245292   -0.001413000
     17        6           0.000615196    0.000215942   -0.000100905
     18        6          -0.000966270    0.000856891    0.000735033
     19        1           0.000153904   -0.000229154   -0.000099602
     20        1           0.000449725   -0.000419746    0.002165349
     21        7          -0.000052067    0.000044166    0.000134292
     22        6           0.000065870   -0.000011472   -0.000082345
     23        6          -0.000034715   -0.000035387   -0.000025325
     24        1          -0.000011307   -0.000015457    0.000042503
     25        6           0.000600639    0.002516251   -0.000376643
     26        1           0.002756895   -0.001662481    0.000373257
     27        6          -0.000160401    0.000073353    0.000008468
     28        1           0.000057602   -0.000220743    0.000089235
     29        1           0.000047011   -0.000109059   -0.000003525
     30        8           0.000066567   -0.000004119   -0.000131791
     31        6           0.000066076    0.000116730   -0.000033136
     32        6          -0.000018934    0.000044599   -0.000019809
     33        6          -0.000060022    0.000781042   -0.000832602
     34        6           0.000271875   -0.000012814   -0.000133073
     35        6          -0.000136705    0.000013735   -0.000006348
     36        6          -0.000000945    0.000121659    0.000019825
     37        6          -0.000142919   -0.000033589   -0.000009869
     38        6          -0.000036960    0.000028195    0.000021523
     39        6          -0.000112784   -0.000252902    0.000027394
     40        1           0.000043362    0.000110626   -0.000030252
     41        1          -0.000026857   -0.000023460    0.000015908
     42        1          -0.000026070   -0.000016512   -0.000012278
     43        6          -0.000039027   -0.000141333    0.000011070
     44        6          -0.000030063   -0.000005544   -0.000029796
     45        6           0.000039994   -0.000007827   -0.000015956
     46        6          -0.000018729    0.000069382   -0.000022149
     47        6           0.000039406    0.000017936   -0.000026580
     48        6          -0.000085617   -0.000007269   -0.000003736
     49        1          -0.000023073    0.000019592    0.000023375
     50        1          -0.000007914    0.000009318    0.000004928
     51        1          -0.000004177    0.000045268    0.000005311
     52        6          -0.000035933    0.000054195    0.000111999
     53        1           0.000024552   -0.000063678    0.000020788
     54        6           0.000073299   -0.000125112   -0.000059005
     55        1           0.000009719    0.000009202    0.000243339
     56        1          -0.000277666   -0.000084396   -0.000078649
     57        6          -0.000419675   -0.000169720    0.000324364
     58        6          -0.000276747    0.000179019   -0.001015081
     59        1           0.000132392   -0.000131208    0.000196728
     60        1           0.000025253   -0.000095787   -0.000034397
     61       35           0.000212000    0.000083264   -0.002338035
     62        1          -0.000000495    0.000001999    0.000004914
     63        1          -0.000037532    0.000005332   -0.000019352
 -------------------------------------------------------------------
 Cartesian Forces:  Max     0.003463792 RMS     0.000805485

 GradGradGradGradGradGradGradGradGradGradGradGradGradGradGradGradGradGrad
 Berny optimization.
 FormGI is forming the generalized inverse of G from B-inverse, IUseBI=4.
 Internal  Forces:  Max     0.003791071 RMS     0.000606977
 Search for a local minimum.
 Step number   1 out of a maximum of  349
 All quantities printed in internal units (Hartrees-Bohrs-Radians)
 Mixed Optimization -- En-DIIS/RFO-DIIS
 Second derivative matrix not updated -- first step.
 ITU=  0
     Eigenvalues ---    0.00230   0.00230   0.00230   0.00833   0.00925
     Eigenvalues ---    0.00930   0.01038   0.01532   0.01624   0.01628
     Eigenvalues ---    0.01679   0.01684   0.01686   0.01718   0.01734
     Eigenvalues ---    0.01741   0.01759   0.01784   0.01788   0.01880
     Eigenvalues ---    0.01918   0.01952   0.01965   0.02006   0.02007
     Eigenvalues ---    0.02072   0.02075   0.02124   0.02125   0.02128
     Eigenvalues ---    0.02129   0.02130   0.02136   0.02139   0.02143
     Eigenvalues ---    0.02161   0.02166   0.02168   0.02171   0.02173
     Eigenvalues ---    0.02174   0.02184   0.02188   0.02224   0.02225
     Eigenvalues ---    0.02227   0.02234   0.02248   0.02295   0.02305
     Eigenvalues ---    0.02307   0.02313   0.02337   0.02416   0.02438
     Eigenvalues ---    0.04505   0.04931   0.05068   0.05068   0.05103
     Eigenvalues ---    0.05103   0.05129   0.05129   0.05190   0.05816
     Eigenvalues ---    0.09750   0.12607   0.13411   0.13447   0.14787
     Eigenvalues ---    0.15384   0.15986   0.15987   0.15993   0.15994
     Eigenvalues ---    0.15995   0.15995   0.15998   0.15998   0.15999
     Eigenvalues ---    0.15999   0.15999   0.16000   0.16000   0.16000
     Eigenvalues ---    0.16000   0.16000   0.16000   0.16000   0.16000
     Eigenvalues ---    0.16000   0.16000   0.21749   0.21999   0.22000
     Eigenvalues ---    0.22000   0.22000   0.22080   0.22096   0.22206
     Eigenvalues ---    0.22789   0.23022   0.23165   0.23413   0.23428
     Eigenvalues ---    0.23444   0.23470   0.23478   0.23484   0.23956
     Eigenvalues ---    0.24866   0.24903   0.24946   0.24956   0.24978
     Eigenvalues ---    0.24981   0.24998   0.24999   0.25000   0.25000
     Eigenvalues ---    0.25000   0.33670   0.33713   0.34459   0.34516
     Eigenvalues ---    0.34525   0.34529   0.34536   0.34538   0.34562
     Eigenvalues ---    0.34587   0.34605   0.34624   0.34629   0.34682
     Eigenvalues ---    0.34691   0.34694   0.34760   0.34766   0.34795
     Eigenvalues ---    0.34857   0.34886   0.34948   0.35208   0.35255
     Eigenvalues ---    0.37129   0.37541   0.38100   0.39767   0.40088
     Eigenvalues ---    0.40903   0.41022   0.41128   0.41600   0.41694
     Eigenvalues ---    0.42316   0.42395   0.42449   0.43851   0.44316
     Eigenvalues ---    0.44820   0.45580   0.45821   0.45875   0.45950
     Eigenvalues ---    0.46291   0.46369   0.46563   0.47066   0.47219
     Eigenvalues ---    0.47274   0.48933   0.48960   0.50639   0.50676
     Eigenvalues ---    0.54434   0.54731   0.56303   0.56510   1.31755
     Eigenvalues ---    1.38303   1.40234   1.41726
 RFO step:  Lambda=-2.37470536D-03 EMin= 2.30000000D-03
 Linear search not attempted -- first point.
 Iteration  1 RMS(Cart)=  0.30190091 RMS(Int)=  0.00779085
 Iteration  2 RMS(Cart)=  0.02360452 RMS(Int)=  0.00009222
 Iteration  3 RMS(Cart)=  0.00018332 RMS(Int)=  0.00008297
 Iteration  4 RMS(Cart)=  0.00000009 RMS(Int)=  0.00008297
 Variable       Old X    -DE/DX   Delta X   Delta X   Delta X     New X
                                 (Linear)    (Quad)   (Total)
    R1        3.45644   0.00187   0.00000   0.00833   0.00833   3.46477
    R2        3.47024   0.00032   0.00000   0.00146   0.00146   3.47169
    R3        3.43937  -0.00004   0.00000  -0.00018  -0.00018   3.43920
    R4        4.08274   0.00094   0.00000   0.00941   0.00941   4.09215
    R5        3.81751  -0.00001   0.00000  -0.00012  -0.00012   3.81739
    R6        2.15833  -0.00379   0.00000  -0.00270  -0.00270   2.15563
    R7        2.15455  -0.00038   0.00000  -0.00027  -0.00027   2.15428
    R8        2.16330  -0.00004   0.00000  -0.00003  -0.00003   2.16327
    R9        2.52927  -0.00087   0.00000  -0.00155  -0.00154   2.52773
   R10        2.53967  -0.00139   0.00000  -0.00259  -0.00257   2.53711
   R11        2.62731   0.00010   0.00000   0.00027   0.00026   2.62758
   R12        2.06057  -0.00010   0.00000  -0.00028  -0.00028   2.06028
   R13        2.62526  -0.00058   0.00000  -0.00133  -0.00131   2.62396
   R14        2.06392  -0.00016   0.00000  -0.00047  -0.00047   2.06344
   R15        2.64124  -0.00072   0.00000  -0.00138  -0.00140   2.63983
   R16        2.64458   0.00072   0.00000   0.00166   0.00164   2.64622
   R17        2.05907  -0.00019   0.00000  -0.00054  -0.00054   2.05853
   R18        2.18087   0.00074   0.00000   0.00056   0.00056   2.18144
   R19        2.70344   0.00054   0.00000   0.00133   0.00134   2.70478
   R20        2.65100   0.00125   0.00000   0.00277   0.00278   2.65378
   R21        2.64976  -0.00006   0.00000  -0.00014  -0.00014   2.64962
   R22        2.62766  -0.00011   0.00000  -0.00020  -0.00020   2.62746
   R23        2.06180   0.00015   0.00000   0.00042   0.00042   2.06222
   R24        2.06194   0.00002   0.00000   0.00006   0.00006   2.06200
   R25        2.63764   0.00082   0.00000   0.00177   0.00177   2.63941
   R26        2.06066  -0.00032   0.00000  -0.00092  -0.00092   2.05974
   R27        2.62678   0.00045   0.00000   0.00092   0.00091   2.62769
   R28        6.22004  -0.00227   0.00000  -0.17826  -0.17826   6.04178
   R29        2.53887   0.00012   0.00000   0.00022   0.00022   2.53909
   R30        2.52745   0.00015   0.00000   0.00027   0.00027   2.52771
   R31        2.62932  -0.00002   0.00000  -0.00007  -0.00007   2.62924
   R32        2.06009  -0.00001   0.00000  -0.00002  -0.00002   2.06007
   R33        2.62243   0.00005   0.00000   0.00011   0.00010   2.62253
   R34        2.63840   0.00006   0.00000   0.00012   0.00012   2.63852
   R35        2.06351   0.00003   0.00000   0.00010   0.00010   2.06361
   R36        2.06446  -0.00232   0.00000  -0.00666  -0.00666   2.05780
   R37        2.05760  -0.00003   0.00000  -0.00010  -0.00010   2.05750
   R38        2.63861   0.00039   0.00000   0.00096   0.00096   2.63957
   R39        2.63841   0.00049   0.00000   0.00110   0.00110   2.63951
   R40        2.05262   0.00004   0.00000   0.00011   0.00011   2.05273
   R41        2.64783  -0.00037   0.00000  -0.00086  -0.00086   2.64697
   R42        2.64754  -0.00022   0.00000  -0.00059  -0.00059   2.64695
   R43        2.06562  -0.00000   0.00000  -0.00000  -0.00000   2.06562
   R44        2.81191  -0.00039   0.00000  -0.00114  -0.00114   2.81077
   R45        2.59316   0.00006   0.00000   0.00012   0.00013   2.59328
   R46        2.73454   0.00013   0.00000   0.00041   0.00040   2.73494
   R47        2.69429  -0.00027   0.00000  -0.00071  -0.00070   2.69359
   R48        2.06453   0.00006   0.00000   0.00017   0.00017   2.06470
   R49        2.58109  -0.00017   0.00000  -0.00039  -0.00038   2.58071
   R50        2.06289  -0.00003   0.00000  -0.00009  -0.00009   2.06281
   R51        2.70642  -0.00001   0.00000  -0.00004  -0.00004   2.70638
   R52        2.06432  -0.00003   0.00000  -0.00008  -0.00008   2.06423
   R53        2.71319  -0.00006   0.00000  -0.00001  -0.00002   2.71317
   R54        2.71261   0.00028   0.00000   0.00063   0.00062   2.71322
   R55        2.73400   0.00056   0.00000   0.00147   0.00147   2.73547
   R56        2.70660  -0.00015   0.00000  -0.00039  -0.00040   2.70620
   R57        2.58125  -0.00033   0.00000  -0.00066  -0.00065   2.58060
   R58        2.06434  -0.00002   0.00000  -0.00005  -0.00005   2.06429
   R59        2.69437  -0.00020   0.00000  -0.00048  -0.00047   2.69389
   R60        2.06282  -0.00001   0.00000  -0.00004  -0.00004   2.06278
   R61        2.59277   0.00003   0.00000   0.00008   0.00009   2.59286
   R62        2.06468  -0.00004   0.00000  -0.00012  -0.00012   2.06457
   R63        2.81117   0.00013   0.00000   0.00039   0.00039   2.81156
   R64        2.64714   0.00013   0.00000   0.00029   0.00029   2.64744
   R65        2.05860   0.00016   0.00000   0.00046   0.00046   2.05906
   R66        2.63817   0.00015   0.00000   0.00029   0.00029   2.63846
   R67        2.06321   0.00002   0.00000   0.00006   0.00006   2.06327
   R68        2.06175  -0.00004   0.00000  -0.00012  -0.00012   2.06163
    A1        1.61302  -0.00013   0.00000   0.00195   0.00253   1.61556
    A2        1.56666  -0.00062   0.00000  -0.00149  -0.00149   1.56518
    A3        1.57304   0.00084   0.00000   0.00306   0.00305   1.57609
    A4        1.56224  -0.00022   0.00000  -0.00168  -0.00169   1.56055
    A5        1.55348   0.00059   0.00000   0.00642   0.00582   1.55930
    A6        1.57813   0.00016   0.00000   0.00069   0.00071   1.57884
[...]
                 (A) (A) (A) (A) (A) (A) (A) (A) (A) (A) (A) (A)
                 (A) (A) (A) (A) (A) (A) (A) (A) (A) (A) (A) (A)
                 (A) (A) (A) (A) (A) (A) (A) (A) (A) (A) (A) (A)
                 (A) (A) (A) (A) (A) (A) (A) (A) (A) (A) (A) (A)
                 (A) (A) (A) (A) (A) (A) (A) (A) (A) (A) (A) (A)
                 (A) (A) (A) (A) (A) (A) (A) (A) (A) (A)
 The electronic state is 1-A.
 Alpha  occ. eigenvalues -- -482.95237-235.70700 -62.53300 -56.33853 -56.33851
 Alpha  occ. eigenvalues --  -56.33849 -27.47707 -23.53517 -23.53264 -23.53254
 Alpha  occ. eigenvalues --  -19.34885 -19.34596 -19.34575 -14.51011 -14.51002
 Alpha  occ. eigenvalues --  -14.50114 -10.42306 -10.42138 -10.42122 -10.39367
 Alpha  occ. eigenvalues --  -10.37269 -10.37263 -10.36775 -10.36748 -10.36023
 Alpha  occ. eigenvalues --  -10.34854 -10.34835 -10.34722 -10.34708 -10.33937
 Alpha  occ. eigenvalues --  -10.33638 -10.33634 -10.33626 -10.33614 -10.33319
 Alpha  occ. eigenvalues --  -10.33315 -10.33026 -10.32941 -10.32939 -10.32905
 Alpha  occ. eigenvalues --  -10.32583 -10.32416 -10.32408 -10.32263 -10.32186
 Alpha  occ. eigenvalues --  -10.32076 -10.32064 -10.32058 -10.31908 -10.31904
 Alpha  occ. eigenvalues --   -8.70065  -6.51744  -6.51740  -6.51733  -3.26931
 Alpha  occ. eigenvalues --   -2.62252  -2.62251  -2.62246  -2.62242  -2.62241
 Alpha  occ. eigenvalues --   -2.12523  -2.11941  -2.11924  -1.23794  -1.23571
 Alpha  occ. eigenvalues --   -1.23533  -1.08738  -1.08403  -1.05428  -1.00391
 Alpha  occ. eigenvalues --   -0.98360  -0.97730  -0.94630  -0.93447  -0.91481
 Alpha  occ. eigenvalues --   -0.91019  -0.90024  -0.88762  -0.87593  -0.86571
 Alpha  occ. eigenvalues --   -0.85362  -0.85085  -0.81988  -0.76909  -0.76005
 Alpha  occ. eigenvalues --   -0.75646  -0.75581  -0.75415  -0.74505  -0.74435
 Alpha  occ. eigenvalues --   -0.72426  -0.72178  -0.70428  -0.69107  -0.68623
 Alpha  occ. eigenvalues --   -0.66072  -0.65371  -0.65324  -0.65087  -0.64706
 Alpha  occ. eigenvalues --   -0.64625  -0.62814  -0.62329  -0.61259  -0.60394
 Alpha  occ. eigenvalues --   -0.60259  -0.58871  -0.57945  -0.57838  -0.57662
 Alpha  occ. eigenvalues --   -0.57236  -0.57138  -0.56622  -0.56597  -0.56076
 Alpha  occ. eigenvalues --   -0.55914  -0.55518  -0.55174  -0.55064  -0.54684
 Alpha  occ. eigenvalues --   -0.54557  -0.54224  -0.53930  -0.53415  -0.53072
 Alpha  occ. eigenvalues --   -0.52623  -0.52523  -0.52503  -0.52230  -0.51687
 Alpha  occ. eigenvalues --   -0.51383  -0.51299  -0.51035  -0.50847  -0.49440
 Alpha  occ. eigenvalues --   -0.48977  -0.48720  -0.47889  -0.47668  -0.47404
 Alpha  occ. eigenvalues --   -0.46502  -0.46204  -0.44992  -0.44777  -0.43838
 Alpha  occ. eigenvalues --   -0.43543  -0.42566  -0.41812  -0.41289  -0.40829
 Alpha  occ. eigenvalues --   -0.40453  -0.39766  -0.37979  -0.36931  -0.36397
 Alpha  occ. eigenvalues --   -0.35765  -0.33954  -0.33414  -0.32809  -0.32346
 Alpha  occ. eigenvalues --   -0.32299  -0.29553  -0.29514  -0.29486  -0.28109
 Alpha virt. eigenvalues --   -0.03141  -0.00874  -0.00046   0.00043   0.01438
 Alpha virt. eigenvalues --    0.01680   0.02393   0.03337   0.03805   0.04038
 Alpha virt. eigenvalues --    0.04757   0.06253   0.06636   0.07052   0.07825
 Alpha virt. eigenvalues --    0.08822   0.09204   0.09835   0.10009   0.10431
 Alpha virt. eigenvalues --    0.11441   0.12546   0.12737   0.13123   0.14188
 Alpha virt. eigenvalues --    0.14390   0.14633   0.15026   0.15051   0.15451
 Alpha virt. eigenvalues --    0.15482   0.16054   0.17284   0.17905   0.18337
 Alpha virt. eigenvalues --    0.18513   0.19161   0.19760   0.20151   0.20371
 Alpha virt. eigenvalues --    0.20682   0.21143   0.21472   0.21929   0.22179
 Alpha virt. eigenvalues --    0.22803   0.23068   0.23370   0.24385   0.24638
 Alpha virt. eigenvalues --    0.24702   0.25437   0.25888   0.26270   0.26449
 Alpha virt. eigenvalues --    0.27420   0.28036   0.28069   0.29710   0.29935
 Alpha virt. eigenvalues --    0.29961   0.30370   0.30496   0.31473   0.31974
 Alpha virt. eigenvalues --    0.32334   0.32679   0.32959   0.33636   0.33661
 Alpha virt. eigenvalues --    0.33735   0.34645   0.34787   0.35163   0.35877
 Alpha virt. eigenvalues --    0.35945   0.36444   0.36488   0.36876   0.37389
 Alpha virt. eigenvalues --    0.37962   0.38247   0.38558   0.39783   0.39903
 Alpha virt. eigenvalues --    0.40354   0.40738   0.41402   0.41907   0.41993
 Alpha virt. eigenvalues --    0.42263   0.42270   0.43544   0.43794   0.44536
 Alpha virt. eigenvalues --    0.44978   0.46160   0.46589   0.46700   0.46739
 Alpha virt. eigenvalues --    0.47159   0.47186   0.47842   0.48557   0.49069
 Alpha virt. eigenvalues --    0.49484   0.49814   0.50365   0.51004   0.51558
 Alpha virt. eigenvalues --    0.51710   0.52033   0.52190   0.52471   0.52597
 Alpha virt. eigenvalues --    0.52815   0.53406   0.53594   0.54290   0.54457
 Alpha virt. eigenvalues --    0.54827   0.54864   0.55193   0.55567   0.55746
 Alpha virt. eigenvalues --    0.56338   0.56552   0.56685   0.56832   0.57424
 Alpha virt. eigenvalues --    0.57879   0.58141   0.58161   0.59280   0.59772
 Alpha virt. eigenvalues --    0.60191   0.60842   0.61099   0.61647   0.61725
 Alpha virt. eigenvalues --    0.61991   0.62397   0.62699   0.63055   0.63778
 Alpha virt. eigenvalues --    0.64487   0.64822   0.65946   0.66526   0.66809
 Alpha virt. eigenvalues --    0.67478   0.67647   0.67739   0.67776   0.68076
 Alpha virt. eigenvalues --    0.68839   0.68881   0.69998   0.70305   0.70412
 Alpha virt. eigenvalues --    0.70850   0.71773   0.71809   0.72038   0.72255
 Alpha virt. eigenvalues --    0.72771   0.72880   0.73288   0.73338   0.73473
 Alpha virt. eigenvalues --    0.74190   0.74223   0.74474   0.74534   0.75013
 Alpha virt. eigenvalues --    0.75096   0.75523   0.75911   0.76401   0.76609
 Alpha virt. eigenvalues --    0.76946   0.77114   0.77334   0.77679   0.78719
 Alpha virt. eigenvalues --    0.78808   0.78989   0.79284   0.79786   0.79960
 Alpha virt. eigenvalues --    0.80302   0.80480   0.80852   0.81308   0.81436
 Alpha virt. eigenvalues --    0.82000   0.82469   0.82758   0.83122   0.83667
 Alpha virt. eigenvalues --    0.84016   0.84174   0.84679   0.84896   0.85167
 Alpha virt. eigenvalues --    0.85232   0.85476   0.85747   0.86502   0.86628
 Alpha virt. eigenvalues --    0.86704   0.87265   0.87596   0.88177   0.88309
 Alpha virt. eigenvalues --    0.88436   0.88758   0.88995   0.90070   0.90226
 Alpha virt. eigenvalues --    0.90378   0.90509   0.91156   0.91233   0.91255
 Alpha virt. eigenvalues --    0.92637   0.92770   0.93983   0.94479   0.94647
 Alpha virt. eigenvalues --    0.95210   0.95607   0.97086   0.97433   0.97602
 Alpha virt. eigenvalues --    0.97771   0.98580   0.99068   0.99691   1.00330
 Alpha virt. eigenvalues --    1.00593   1.02033   1.03548   1.03880   1.06056
 Alpha virt. eigenvalues --    1.06986   1.07499   1.08146   1.09359   1.10908
 Alpha virt. eigenvalues --    1.11675   1.11832   1.13392   1.14130   1.14224
 Alpha virt. eigenvalues --    1.14836   1.15532   1.15955   1.16287   1.16418
 Alpha virt. eigenvalues --    1.18010   1.18481   1.18536   1.19695   1.21113
 Alpha virt. eigenvalues --    1.22082   1.22693   1.24486   1.24631   1.25240
 Alpha virt. eigenvalues --    1.25483   1.26097   1.27075   1.27220   1.27930
 Alpha virt. eigenvalues --    1.28216   1.29271   1.29386   1.29434   1.29961
 Alpha virt. eigenvalues --    1.30071   1.30415   1.30830   1.31373   1.31944
 Alpha virt. eigenvalues --    1.32111   1.32395   1.33405   1.33499   1.33585
 Alpha virt. eigenvalues --    1.33940   1.34774   1.34847   1.35302   1.36164
 Alpha virt. eigenvalues --    1.36235   1.36317   1.36349   1.36872   1.37201
 Alpha virt. eigenvalues --    1.37745   1.38998   1.39487   1.40465   1.40946
 Alpha virt. eigenvalues --    1.41773   1.42660   1.43527   1.44344   1.45404
 Alpha virt. eigenvalues --    1.46417   1.48406   1.48757   1.49816   1.50215
 Alpha virt. eigenvalues --    1.53726   1.53880   1.55539   1.59096   1.59508
 Alpha virt. eigenvalues --    1.60192   1.61137   1.63116   1.63443   1.65070
 Alpha virt. eigenvalues --    1.65542   1.65801   1.66158   1.66929   1.67934
 Alpha virt. eigenvalues --    1.69078   1.69755   1.70418   1.71619   1.72140
 Alpha virt. eigenvalues --    1.73040   1.73046   1.73348   1.73379   1.73915
 Alpha virt. eigenvalues --    1.74251   1.74740   1.75396   1.75598   1.76583
 Alpha virt. eigenvalues --    1.76974   1.77133   1.78343   1.78407   1.78540
 Alpha virt. eigenvalues --    1.78739   1.79319   1.79462   1.79648   1.79930
 Alpha virt. eigenvalues --    1.80682   1.80729   1.80978   1.81276   1.81362
 Alpha virt. eigenvalues --    1.81870   1.81905   1.82303   1.82765   1.83102
 Alpha virt. eigenvalues --    1.83461   1.83996   1.84403   1.84542   1.85139
 Alpha virt. eigenvalues --    1.85757   1.85844   1.85984   1.86868   1.87692
 Alpha virt. eigenvalues --    1.87875   1.88246   1.88539   1.89132   1.89556
 Alpha virt. eigenvalues --    1.90245   1.90738   1.91173   1.91814   1.92138
 Alpha virt. eigenvalues --    1.92982   1.94234   1.94610   1.95822   1.96126
 Alpha virt. eigenvalues --    1.97204   1.97370   1.97992   1.99240   1.99907
 Alpha virt. eigenvalues --    2.00727   2.00807   2.01621   2.01956   2.02398
 Alpha virt. eigenvalues --    2.02722   2.03194   2.03638   2.04214   2.04619
 Alpha virt. eigenvalues --    2.05013   2.05289   2.05646   2.06075   2.06287
 Alpha virt. eigenvalues --    2.07101   2.07866   2.09831   2.09907   2.10300
 Alpha virt. eigenvalues --    2.10726   2.11713   2.12503   2.13659   2.13848
 Alpha virt. eigenvalues --    2.14764   2.15267   2.15992   2.16719   2.17275
 Alpha virt. eigenvalues --    2.17451   2.17626   2.18075   2.19281   2.19401
 Alpha virt. eigenvalues --    2.19649   2.20689   2.21071   2.21646   2.22601
 Alpha virt. eigenvalues --    2.23450   2.24071   2.24164   2.24208   2.25811
 Alpha virt. eigenvalues --    2.26033   2.29664   2.30178   2.31028   2.31059
 Alpha virt. eigenvalues --    2.31322   2.31964   2.33100   2.34139   2.34549
 Alpha virt. eigenvalues --    2.35181   2.35368   2.35423   2.36053   2.36761
 Alpha virt. eigenvalues --    2.37531   2.37592   2.37716   2.38663   2.38817
 Alpha virt. eigenvalues --    2.39118   2.41094   2.42541   2.42749   2.42970
 Alpha virt. eigenvalues --    2.43985   2.45048   2.45118   2.45700   2.46688
 Alpha virt. eigenvalues --    2.47252   2.47558   2.49594   2.49890   2.50995
 Alpha virt. eigenvalues --    2.53633   2.54580   2.56263   2.56962   2.58955
 Alpha virt. eigenvalues --    2.60146   2.60425   2.61209   2.63352   2.64590
 Alpha virt. eigenvalues --    2.65682   2.65991   2.66545   2.67023   2.67596
 Alpha virt. eigenvalues --    2.67808   2.68250   2.69206   2.69709   2.69874
 Alpha virt. eigenvalues --    2.69921   2.70312   2.70497   2.70638   2.72259
 Alpha virt. eigenvalues --    2.72340   2.72646   2.74057   2.74615   2.75623
 Alpha virt. eigenvalues --    2.76197   2.79010   2.79377   2.79466   2.80031
 Alpha virt. eigenvalues --    2.80140   2.81798   2.81801   2.82198   2.84080
 Alpha virt. eigenvalues --    2.85169   2.85508   2.85793   2.86691   2.87210
 Alpha virt. eigenvalues --    2.87520   2.90128   2.92019   2.93035   2.95468
 Alpha virt. eigenvalues --    2.96061   2.97702   2.98444   2.99860   3.01518
 Alpha virt. eigenvalues --    3.02186   3.05234   3.05815   3.06207   3.06646
 Alpha virt. eigenvalues --    3.06685   3.08970   3.09820   3.11687   3.12091
 Alpha virt. eigenvalues --    3.15835   3.16461   3.19099   3.19395   3.19918
 Alpha virt. eigenvalues --    3.20754   3.20926   3.22419   3.22540   3.24550
 Alpha virt. eigenvalues --    3.24710   3.29427   3.30302   3.32760   3.32889
 Alpha virt. eigenvalues --    3.37146   3.38636   3.41364   3.46284   3.50446
 Alpha virt. eigenvalues --    3.51232   3.51394   3.52785   3.56236   3.61235
 Alpha virt. eigenvalues --    3.61372   3.61707   3.63115   3.63320   3.63569
 Alpha virt. eigenvalues --    3.65368   3.66262   3.69652   3.71657   3.72457
 Alpha virt. eigenvalues --    3.75249   3.75787   3.76479   3.78748   3.79443
 Alpha virt. eigenvalues --    3.80585   3.91163   3.91969   3.97366   4.03809
 Alpha virt. eigenvalues --    4.07083
          Condensed to atoms (all electrons):
 Mulliken charges:
               1
     1  Mn  -0.724430
     2  C    0.366122
     3  O   -0.037060
     4  C    0.366160
     5  O   -0.036037
     6  C    0.300810
     7  N   -0.210710
     8  C   -0.036242
     9  C    0.052694
    10  C    0.092363
    11  H    0.064273
    12  H    0.056548
    13  N    0.103771
    14  C    0.002611
    15  C   -0.170301
    16  C    0.023737
    17  C   -0.025551
    18  C    0.042825
    19  H    0.047015
    20  H    0.070308
    21  N   -0.210284
    22  C   -0.036129
    23  C    0.051504
    24  H    0.064201
    25  C    0.109438
    26  H    0.076164
    27  C    0.109303
    28  H    0.075234
    29  H    0.052808
    30  O   -0.053091
    31  C   -0.182157
    32  C   -0.080348
    33  C   -0.056989
    34  C    0.057665
    35  C   -0.058328
    36  C   -0.018962
    37  C   -0.017634
    38  C    0.018024
    39  C    0.080845
    40  H    0.035394
    41  H    0.044048
    42  H    0.032015
    43  C    0.080834
    44  C    0.018058
    45  C   -0.017607
    46  C   -0.018822
    47  C   -0.058941
    48  C    0.058837
    49  H    0.032046
    50  H    0.044001
    51  H    0.035371
    52  C   -0.055984
    53  H    0.056636
    54  C    0.093400
    55  H    0.057378
    56  H    0.058098
    57  C   -0.000076
    58  C   -0.020510
    59  H    0.055220
    60  H    0.056283
    61  Br  -0.989300
    62  H    0.020932
    63  H    0.052516
 Sum of Mulliken charges =  -0.00000
 Mulliken charges with hydrogens summed into heavy atoms:
               1
     1  Mn  -0.724430
     2  C    0.366122
     3  O   -0.037060
     4  C    0.366160
     5  O   -0.036037
     6  C    0.300810
     7  N   -0.210710
     8  C    0.028031
     9  C    0.109242
    10  C    0.150461
    13  N    0.103771
    14  C    0.002611
    15  C   -0.170301
    16  C    0.070753
    17  C    0.027257
    18  C    0.113133
    21  N   -0.210284
    22  C    0.028072
    23  C    0.108140
    25  C    0.185602
    27  C    0.184537
    30  O   -0.053091
    31  C   -0.129640
    32  C   -0.059416
    33  C   -0.056989
    34  C    0.057665
    35  C   -0.022934
    36  C    0.025086
    37  C    0.014381
    38  C    0.018024
    39  C    0.080845
    43  C    0.080834
    44  C    0.018058
    45  C    0.014439
    46  C    0.025179
    47  C   -0.023570
    48  C    0.058837
    52  C   -0.055984
    54  C    0.150778
    57  C    0.056207
    58  C    0.034710
    61  Br  -0.989300
 Electronic spatial extent (au):  <R**2>=          27463.5523
 Charge=              0.0000 electrons
 Dipole moment (field-independent basis, Debye):
    X=             24.2374    Y=              2.2670    Z=             16.8628  Tot=             29.6132
 Quadrupole moment (field-independent basis, Debye-Ang):
   XX=           -335.6016   YY=           -221.4202   ZZ=           -260.6388
   XY=            -11.0009   XZ=            -77.2658   YZ=             -4.3379
 Traceless Quadrupole moment (field-independent basis, Debye-Ang):
   XX=            -63.0481   YY=             51.1333   ZZ=             11.9147
   XY=            -11.0009   XZ=            -77.2658   YZ=             -4.3379
 Octapole moment (field-independent basis, Debye-Ang**2):
  XXX=            803.5077  YYY=              8.6756  ZZZ=             64.7461  XYY=             81.2352
  XXY=             57.9534  XXZ=            395.9386  XZZ=            -78.8543  YZZ=              3.4686
  YYZ=             33.4981  XYZ=            -14.4078
 Hexadecapole moment (field-independent basis, Debye-Ang**3):
 XXXX=         -26282.3301 YYYY=          -5520.9464 ZZZZ=          -4722.0213 XXXY=           -368.6876
 XXXZ=          -2628.6357 YYYX=             45.5850 YYYZ=            -60.4822 ZZZX=           -423.6597
 ZZZY=             69.9437 XXYY=          -4742.1032 XXZZ=          -5308.4359 YYZZ=          -1883.0348
 XXYZ=            -83.6974 YYXZ=            104.5739 ZZXY=            -88.3401
 N-N= 5.808585099453D+03 E-N=-2.444288146326D+04  KE= 5.399323297931D+03
 1\1\GINC-C471-082\FOpt\RwB97XD\Gen\C34H21Br1Mn1N3O3\DMCINTOS\31-Dec-20
 22\0\\# wB97XD Gen Opt SCRF=(Solvent=TetraHydroFuran)\\Mn Transition S
 tate Reactant\\0,1\Mn,-0.8875973802,-0.4492217193,1.7955738094\C,-1.46
 14693931,-1.8412108607,2.8467062056\O,-1.7870580919,-2.7187483056,3.49
 8251919\C,-1.8800323358,0.7841053827,2.726900283\O,-2.4640687574,1.575
 2357167,3.3042156744\C,0.4957490601,-0.1750696018,2.9449334363\N,-0.24
 7470127,1.1429567674,0.4661351877\C,-0.732158119,2.7109366303,-1.28132
 11058\C,0.6203079403,2.9972984092,-1.4383860259\C,1.0411307453,1.48473
 0845,0.3578983648\H,-1.4876038232,3.1924097526,-1.9025176763\H,0.95734
 34244,3.6945819157,-2.2082485431\N,-2.4195932846,-0.7603831565,0.51861
 64852\C,-3.3139302427,-0.9507161408,-0.1858513898\C,-4.3804117666,-1.1
 880529879,-1.1105739352\C,-4.088641583,-1.2332925795,-2.4840635834\C,-
 5.1199387213,-1.4664163228,-3.3860713914\C,-5.6878376611,-1.3732593133
 ,-0.6371775525\H,-3.0647925129,-1.0870577397,-2.8324583238\H,-5.882122
 7626,-1.3314389106,0.4393661029\N,0.2444638538,-1.8658730106,0.6014517
 072\C,0.3088742516,-3.6542292323,-0.9937286378\C,1.6816252443,-3.49725
 60306,-1.1567847156\H,-0.2441340647,-4.4084191948,-1.5538810422\C,-1.1
 222380333,1.7725292928,-0.3360431727\H,-2.1742782406,1.5182802308,-0.2
 161563055\C,-0.3717506184,-2.8150478667,-0.122573822\H,-1.4495809262,-
 2.9091074467,0.000873843\H,-4.906349001,-1.5038685153,-4.4555304534\O,
 1.3440151286,-0.0057478232,3.6951938562\C,3.4595391877,0.1555007529,-0
 .8009418379\C,6.2021677339,0.6076233756,-0.6997904104\C,1.5465458749,2
 .369895596,-0.6027089792\C,3.0118050423,2.6013597214,-0.714078945\C,3.
 5258294837,3.873314778,-0.7341740595\C,4.9324330204,4.1027464788,-0.77
 37925981\C,5.8106806831,3.0568054405,-0.7569598062\C,5.333745167,1.706
 5420367,-0.7328091398\C,3.917418623,1.4738209752,-0.7566661232\H,2.850
 3859174,4.7304638409,-0.6816567534\H,5.3010896686,5.1300960609,-0.7878
 462126\H,6.8885304018,3.2342374329,-0.754462666\C,4.3117226257,-0.9413
 346035,-0.6592770756\C,5.7282595716,-0.7093151543,-0.6363889839\C,6.61
 00716685,-1.8354298558,-0.5625685914\C,6.1101986617,-3.1042265403,-0.4
 861349049\C,4.7033344284,-3.3311155933,-0.4440664814\C,3.8110195426,-2
 .2911997229,-0.5157826203\H,7.6882904421,-1.660129878,-0.5613486914\H,
 6.7864200853,-3.958996168,-0.4257685408\H,4.3351591753,-4.3515188218,-
 0.3141163357\C,2.3477889333,-2.5324969968,-0.3980233878\H,2.2326552825
 ,-4.1118187766,-1.8717252831\C,1.5747775444,-1.7778998679,0.4934928991
 \H,2.073671381,-1.0638094598,1.1476992231\H,1.7304383829,1.0311558946,
 1.069426117\C,-6.4245978899,-1.6519323599,-2.9224306141\C,-6.706340561
 9,-1.6054916575,-1.556428187\H,-7.7277373838,-1.7512395978,-1.20118105
 03\H,-7.2305705228,-1.8349108959,-3.6360900323\Br,-5.5591117542,-1.060
 775171,3.1212251316\H,7.2809760836,0.7833713066,-0.7075771746\H,2.3974
 412977,-0.0236807541,-0.9412270831\\Version=ES64L-G16RevA.03\State=1-A
 \HF=-5421.4774378\RMSD=7.265e-09\RMSF=1.555e-06\Dipole=8.3938895,0.820
 3182,-8.0380002\Quadrupole=-28.1199903,38.0508293,-9.930839,-5.9886204
 ,63.0378162,7.7129386\PG=C01 [X(C34H21Br1Mn1N3O3)]\\@


 ...THE PHYSICISTS HAVE MADE THEIR UNIVERSE, AND IF YOU DO NOT LIKE
 IT, YOU MUST MAKE YOUR OWN.
                               -- E. R. HARRISON IN "COSMOLOGY" (1980)
 Job cpu time:      14 days  8 hours 59 minutes 26.1 seconds.
 Elapsed time:       1 days  5 hours 24 minutes 45.1 seconds.
 File lengths (MBytes):  RWF=   1128 Int=      0 D2E=      0 Chk=     50 Scr=      1
 Normal termination of Gaussian 16 at Sat Dec 31 05:11:49 2022.
