 Entering Gaussian System, Link 0=g16
 Initial command:
 /home1/apps/gaussian/16rA.03/g16/l1.exe "/tmp/Gau-211735.inp" -scrdir="/tmp/"
 Entering Link 1 = /home1/apps/gaussian/16rA.03/g16/l1.exe PID=    211737.
  
 Copyright (c) 1988,1990,1992,1993,1995,1998,2003,2009,2016,
            Gaussian, Inc.  All Rights Reserved.
  
 This is part of the Gaussian(R) 16 program.  It is based on
 the Gaussian(R) 09 system (copyright 2009, Gaussian, Inc.),
 the Gaussian(R) 03 system (copyright 2003, Gaussian, Inc.),
 the Gaussian(R) 98 system (copyright 1998, Gaussian, Inc.),
 the Gaussian(R) 94 system (copyright 1995, Gaussian, Inc.),
 the Gaussian 92(TM) system (copyright 1992, Gaussian, Inc.),
 the Gaussian 90(TM) system (copyright 1990, Gaussian, Inc.),
 the Gaussian 88(TM) system (copyright 1988, Gaussian, Inc.),
 the Gaussian 86(TM) system (copyright 1986, Carnegie Mellon
 University), and the Gaussian 82(TM) system (copyright 1983,
 Carnegie Mellon University). Gaussian is a federally registered
 trademark of Gaussian, Inc.
  
 This software contains proprietary and confidential information,
 including trade secrets, belonging to Gaussian, Inc.
  
 This software is provided under written license and may be
 used, copied, transmitted, or stored only in accord with that
 written license.
  
 The following legend is applicable only to US Government
 contracts under FAR:
  
                    RESTRICTED RIGHTS LEGEND
  
 Use, reproduction and disclosure by the US Government is
 subject to restrictions as set forth in subparagraphs (a)
 and (c) of the Commercial Computer Software - Restricted
 Rights clause in FAR 52.227-19.
  
 Gaussian, Inc.
 340 Quinnipiac St., Bldg. 40, Wallingford CT 06492
  
  
 ---------------------------------------------------------------
 Warning -- This program may not be used in any manner that
 competes with the business of Gaussian, Inc. or will provide
 assistance to any competitor of Gaussian, Inc.  The licensee
 of this program is prohibited from giving any competitor of
 Gaussian, Inc. access to this program.  By using this program,
 the user acknowledges that Gaussian, Inc. is engaged in the
 business of creating and licensing software in the field of
 computational chemistry and represents and warrants to the
 licensee that it is not a competitor of Gaussian, Inc. and that
 it will not use this program in any manner prohibited above.
 ---------------------------------------------------------------
  

 Cite this work as:
 Gaussian 16, Revision A.03,
 M. J. Frisch, G. W. Trucks, H. B. Schlegel, G. E. Scuseria, 
 M. A. Robb, J. R. Cheeseman, G. Scalmani, V. Barone, 
 G. A. Petersson, H. Nakatsuji, X. Li, M. Caricato, A. V. Marenich, 
 J. Bloino, B. G. Janesko, R. Gomperts, B. Mennucci, H. P. Hratchian, 
 J. V. Ortiz, A. F. Izmaylov, J. L. Sonnenberg, D. Williams-Young, 
 F. Ding, F. Lipparini, F. Egidi, J. Goings, B. Peng, A. Petrone, 
 T. Henderson, D. Ranasinghe, V. G. Zakrzewski, J. Gao, N. Rega, 
 G. Zheng, W. Liang, M. Hada, M. Ehara, K. Toyota, R. Fukuda, 
 J. Hasegawa, M. Ishida, T. Nakajima, Y. Honda, O. Kitao, H. Nakai, 
 T. Vreven, K. Throssell, J. A. Montgomery, Jr., J. E. Peralta, 
 F. Ogliaro, M. J. Bearpark, J. J. Heyd, E. N. Brothers, K. N. Kudin, 
 V. N. Staroverov, T. A. Keith, R. Kobayashi, J. Normand, 
 K. Raghavachari, A. P. Rendell, J. C. Burant, S. S. Iyengar, 
 J. Tomasi, M. Cossi, J. M. Millam, M. Klene, C. Adamo, R. Cammi, 
 J. W. Ochterski, R. L. Martin, K. Morokuma, O. Farkas, 
 J. B. Foresman, and D. J. Fox, Gaussian, Inc., Wallingford CT, 2016.
 
 ******************************************
 Gaussian 16:  ES64L-G16RevA.03 25-Dec-2016
                19-Dec-2022 
 ******************************************
 %RWF=myrwfile
 %NoSave
 %NProcShared=12
 Will use up to   12 processors via shared memory.
 %Chk=checkpoint.chk
 %mem=120MW
 ----------------------------------------------------------------
 # wB97XD Gen SCRF=(Solvent=TetraHydroFuran) Freq(Numer, Restart)
 ----------------------------------------------------------------
 1/35=1,38=10/6(3);
 7/8=1,25=1,44=-1/16;
 1/10=4,30=1,38=10/3;
 99//99;
 3/5=7,6=1,11=2,25=1,30=1,70=2205,71=1,72=20,74=-58,82=7/1,2,3;
 4/5=5,16=3,69=2/1;
 5/5=2,38=5,53=20,98=1/2;
 6/7=2,8=2,9=2,10=2,12=2,28=1/1;
 7/7=1/1,2,3,16;
 1/38=10/6(-5);
 7/8=1,25=1,44=-1/16;
 1/10=4,30=1,38=10/3;
 99//99;
 Restoring state from the checkpoint file "checkpoint.chk".
 ONIOM results not found on unit 2.
 Title:  TS Freq Analysis
 Route:  # wB97XD Gen SCRF=(Solvent=TetraHydroFuran) Freq(Numer)
 NDeriv=    183 NFrqRd=  0 NDerD0=      0 MskFDP=       0 MskDFD=       0 MskDF0=       0
 Re-enter D2Numr:  atom  11 IXYZ=2 step-down number 1
 Basis read from rwf:  (5D, 7F)
   749 basis functions,  1349 primitive gaussians,   800 cartesian basis functions
   174 alpha electrons      174 beta electrons
       nuclear repulsion energy      6625.1656511754 Hartrees.
 NAtoms=   61 NActive=   61 NUniq=   61 SFac= 1.00D+00 NAtFMM=   60 NAOKFM=T Big=T
 Integral buffers will be    131072 words long.
 Raffenetti 2 integral format.
 Two-electron integral symmetry is turned off.
 Nuclear repulsion after empirical dispersion term =     6625.0962133290 Hartrees.
 ------------------------------------------------------------------------------
 Polarizable Continuum Model (PCM)
 =================================
 Model                : PCM.
 Atomic radii         : UFF (Universal Force Field).
 Polarization charges : Total charges.
 Charge compensation  : None.
 Solution method      : On-the-fly selection.
 Cavity type          : Scaled VdW (van der Waals Surface) (Alpha=1.100).
 Cavity algorithm     : GePol (No added spheres)
                        Default sphere list used, NSphG=   61.
                        Lebedev-Laikov grids with approx.  5.0 points / Ang**2.
                        Smoothing algorithm: York/Karplus (Gamma=1.0000).
                        Polarization charges: spherical gaussians, with
                                              point-specific exponents (IZeta= 3).
                        Self-potential: point-specific (ISelfS= 7).
                        Self-field    : sphere-specific E.n sum rule (ISelfD= 2).
 1st derivatives      : Analytical E(r).r(x)/FMM algorithm (CHGder, D1EAlg=3).
                        Cavity 1st derivative terms included.
 Solvent              : TetraHydroFuran, Eps=   7.425700 Eps(inf)=   1.974025
 ------------------------------------------------------------------------------
 One-electron integrals computed using PRISM.
 NBasis=   749 RedAO= T EigKep=  2.25D-04  NBF=   749
 NBsUse=   749 1.00D-06 EigRej= -1.00D+00 NBFU=   749
 Initial guess from the checkpoint file:  "checkpoint.chk"
 B after Tr=     0.000000    0.000000    0.000005
         Rot=    1.000000    0.000001   -0.000000   -0.000000 Ang=   0.00 deg.
 Requested convergence on RMS density matrix=1.00D-08 within 128 cycles.
 Requested convergence on MAX density matrix=1.00D-06.
 Requested convergence on             energy=1.00D-06.
 No special actions if energy rises.
 Inv3:  Mode=1 IEnd=    68516523.
 Iteration    1 A*A^-1 deviation from unit magnitude is 3.55D-15 for   2280.
 Iteration    1 A*A^-1 deviation from orthogonality  is 3.11D-15 for   3404   2053.
 Iteration    1 A^-1*A deviation from unit magnitude is 3.55D-15 for   2280.
 Iteration    1 A^-1*A deviation from orthogonality  is 1.80D-13 for   4139   4127.
 Error on total polarization charges =  0.02602
 SCF Done:  E(RwB97XD) =  -6140.23096114     A.U. after    6 cycles
            NFock=  6  Conv=0.59D-08     -V/T= 2.0038

 **********************************************************************

            Population analysis using the SCF density.

 **********************************************************************

 Alpha  occ. eigenvalues -- -482.95274-235.72055 -89.04536 -89.04091 -62.53342
 Alpha  occ. eigenvalues --  -56.33893 -56.33892 -56.33891 -27.48762 -23.54725
 Alpha  occ. eigenvalues --  -23.54308 -23.54256 -19.35890 -19.35743 -19.35553
 Alpha  occ. eigenvalues --  -14.51751 -14.51205 -14.46906 -10.43294 -10.43207
 Alpha  occ. eigenvalues --  -10.43151 -10.37940 -10.37528 -10.37465 -10.36705
 Alpha  occ. eigenvalues --  -10.36397 -10.36273 -10.36251 -10.35967 -10.35873
 Alpha  occ. eigenvalues --  -10.35785 -10.35367 -10.35316 -10.34886 -10.34818
 Alpha  occ. eigenvalues --  -10.34720 -10.34665 -10.34122 -10.33605 -10.33514
 Alpha  occ. eigenvalues --  -10.33197 -10.33153 -10.33032 -10.32999 -10.32799
 Alpha  occ. eigenvalues --  -10.32783 -10.32738 -10.32598 -10.32517 -10.32473
 Alpha  occ. eigenvalues --   -8.70110  -8.09548  -8.09237  -6.51786  -6.51784
 Alpha  occ. eigenvalues --   -6.51780  -6.05014  -6.04697  -6.04622  -6.04302
 Alpha  occ. eigenvalues --   -6.03987  -6.03671  -3.28234  -2.62295  -2.62294
 Alpha  occ. eigenvalues --   -2.62290  -2.62289  -2.62288  -2.14136  -2.13168
 Alpha  occ. eigenvalues --   -2.13036  -1.24869  -1.24718  -1.24483  -1.09363
 Alpha  occ. eigenvalues --   -1.08623  -1.02442  -1.01583  -0.99216  -0.98078
 Alpha  occ. eigenvalues --   -0.95323  -0.94128  -0.92543  -0.91840  -0.90418
 Alpha  occ. eigenvalues --   -0.88960  -0.88354  -0.86888  -0.86611  -0.85994
 Alpha  occ. eigenvalues --   -0.83388  -0.79267  -0.76915  -0.76364  -0.76235
 Alpha  occ. eigenvalues --   -0.75576  -0.74968  -0.74415  -0.72791  -0.72229
 Alpha  occ. eigenvalues --   -0.71061  -0.70411  -0.69290  -0.67524  -0.66320
 Alpha  occ. eigenvalues --   -0.66129  -0.65994  -0.65700  -0.64995  -0.62868
 Alpha  occ. eigenvalues --   -0.62405  -0.61612  -0.60464  -0.59532  -0.59414
 Alpha  occ. eigenvalues --   -0.58657  -0.58201  -0.57944  -0.57840  -0.57743
 Alpha  occ. eigenvalues --   -0.57561  -0.57459  -0.57336  -0.56433  -0.56253
 Alpha  occ. eigenvalues --   -0.55610  -0.55176  -0.55018  -0.54838  -0.54368
 Alpha  occ. eigenvalues --   -0.53777  -0.53548  -0.53262  -0.53050  -0.52988
 Alpha  occ. eigenvalues --   -0.52770  -0.52510  -0.51950  -0.51925  -0.50948
 Alpha  occ. eigenvalues --   -0.49988  -0.49573  -0.48878  -0.48693  -0.48410
 Alpha  occ. eigenvalues --   -0.47953  -0.46349  -0.46238  -0.45914  -0.45812
 Alpha  occ. eigenvalues --   -0.44849  -0.44771  -0.44034  -0.43757  -0.42955
 Alpha  occ. eigenvalues --   -0.42359  -0.41312  -0.40788  -0.40347  -0.38925
 Alpha  occ. eigenvalues --   -0.38039  -0.37431  -0.35993  -0.35739  -0.35224
 Alpha  occ. eigenvalues --   -0.34727  -0.34487  -0.34275  -0.33381  -0.31674
 Alpha  occ. eigenvalues --   -0.30543  -0.29606  -0.29565  -0.29543
 Alpha virt. eigenvalues --   -0.02508  -0.00512  -0.00122   0.00236   0.00647
 Alpha virt. eigenvalues --    0.01211   0.01913   0.02828   0.03132   0.03463
 Alpha virt. eigenvalues --    0.03689   0.04094   0.04492   0.05581   0.05819
 Alpha virt. eigenvalues --    0.08208   0.08605   0.08738   0.08856   0.09358
 Alpha virt. eigenvalues --    0.10018   0.10630   0.12159   0.12467   0.13375
 Alpha virt. eigenvalues --    0.13504   0.13894   0.14354   0.14412   0.15198
 Alpha virt. eigenvalues --    0.15844   0.15997   0.16216   0.17147   0.17577
 Alpha virt. eigenvalues --    0.18172   0.18310   0.18731   0.18901   0.19422
 Alpha virt. eigenvalues --    0.19708   0.20135   0.20949   0.21042   0.21420
 Alpha virt. eigenvalues --    0.21650   0.21884   0.22411   0.23095   0.23244
 Alpha virt. eigenvalues --    0.23580   0.23701   0.24057   0.24594   0.25250
 Alpha virt. eigenvalues --    0.25883   0.26614   0.26870   0.27640   0.28156
 Alpha virt. eigenvalues --    0.28423   0.28819   0.29448   0.30431   0.31286
 Alpha virt. eigenvalues --    0.31866   0.32096   0.32295   0.32645   0.32921
 Alpha virt. eigenvalues --    0.33234   0.33413   0.34225   0.34821   0.34830
 Alpha virt. eigenvalues --    0.35322   0.35687   0.36117   0.36475   0.36864
 Alpha virt. eigenvalues --    0.37372   0.37543   0.37880   0.38576   0.38730
 Alpha virt. eigenvalues --    0.39147   0.39446   0.39808   0.40483   0.40927
 Alpha virt. eigenvalues --    0.41549   0.42054   0.42532   0.42692   0.43283
 Alpha virt. eigenvalues --    0.44392   0.44629   0.45784   0.46290   0.46588
 Alpha virt. eigenvalues --    0.47373   0.47499   0.47999   0.48202   0.48686
 Alpha virt. eigenvalues --    0.49251   0.49425   0.49710   0.50804   0.50998
 Alpha virt. eigenvalues --    0.51072   0.51622   0.52106   0.52223   0.52655
 Alpha virt. eigenvalues --    0.53006   0.53431   0.53700   0.53915   0.54335
 Alpha virt. eigenvalues --    0.54650   0.54794   0.55074   0.55417   0.55631
 Alpha virt. eigenvalues --    0.56452   0.56670   0.56969   0.57336   0.57969
 Alpha virt. eigenvalues --    0.58473   0.58774   0.59982   0.60265   0.60495
 Alpha virt. eigenvalues --    0.60709   0.60985   0.61107   0.61984   0.62670
 Alpha virt. eigenvalues --    0.63621   0.63810   0.64164   0.64593   0.64866
 Alpha virt. eigenvalues --    0.65164   0.65317   0.65927   0.66179   0.66456
 Alpha virt. eigenvalues --    0.66592   0.67163   0.67515   0.68571   0.69031
 Alpha virt. eigenvalues --    0.69122   0.69718   0.69869   0.70715   0.70891
 Alpha virt. eigenvalues --    0.71163   0.71429   0.71631   0.71745   0.71881
 Alpha virt. eigenvalues --    0.72190   0.72496   0.72866   0.73032   0.73209
 Alpha virt. eigenvalues --    0.73610   0.73949   0.74119   0.74500   0.75106
 Alpha virt. eigenvalues --    0.75420   0.75620   0.76066   0.76351   0.76811
 Alpha virt. eigenvalues --    0.77311   0.77498   0.77678   0.77769   0.78093
 Alpha virt. eigenvalues --    0.78189   0.79062   0.79462   0.79649   0.80220
 Alpha virt. eigenvalues --    0.80396   0.80655   0.81119   0.81377   0.82178
 Alpha virt. eigenvalues --    0.82229   0.82553   0.82729   0.83165   0.83486
 Alpha virt. eigenvalues --    0.83689   0.83765   0.84155   0.84361   0.84484
 Alpha virt. eigenvalues --    0.84612   0.85256   0.85656   0.85879   0.85972
 Alpha virt. eigenvalues --    0.86056   0.86475   0.87037   0.87340   0.87460
 Alpha virt. eigenvalues --    0.87917   0.88306   0.88744   0.89196   0.89259
 Alpha virt. eigenvalues --    0.89623   0.90063   0.90497   0.90792   0.91022
 Alpha virt. eigenvalues --    0.91247   0.92241   0.92356   0.92595   0.93381
 Alpha virt. eigenvalues --    0.93831   0.94101   0.94702   0.95287   0.95859
 Alpha virt. eigenvalues --    0.96580   0.97207   0.97389   0.98976   0.99719
 Alpha virt. eigenvalues --    0.99995   1.00923   1.01637   1.02535   1.02783
 Alpha virt. eigenvalues --    1.03161   1.04267   1.05067   1.05910   1.06497
 Alpha virt. eigenvalues --    1.07188   1.07703   1.09125   1.09360   1.10365
 Alpha virt. eigenvalues --    1.11019   1.11692   1.11981   1.12274   1.13056
 Alpha virt. eigenvalues --    1.13363   1.13458   1.14561   1.15282   1.15865
 Alpha virt. eigenvalues --    1.16355   1.16549   1.17677   1.19460   1.19891
 Alpha virt. eigenvalues --    1.20160   1.21352   1.22145   1.22667   1.23512
 Alpha virt. eigenvalues --    1.23944   1.24441   1.25049   1.25723   1.26910
 Alpha virt. eigenvalues --    1.27365   1.27957   1.28110   1.28900   1.29007
 Alpha virt. eigenvalues --    1.29511   1.29623   1.29979   1.30279   1.31133
 Alpha virt. eigenvalues --    1.31902   1.32440   1.32802   1.33065   1.34343
 Alpha virt. eigenvalues --    1.34837   1.35095   1.35687   1.35927   1.36018
 Alpha virt. eigenvalues --    1.36432   1.36571   1.37065   1.37271   1.37679
 Alpha virt. eigenvalues --    1.38601   1.39208   1.39458   1.40423   1.41316
 Alpha virt. eigenvalues --    1.42246   1.44170   1.45968   1.47448   1.48015
 Alpha virt. eigenvalues --    1.48785   1.49833   1.51047   1.52912   1.54597
 Alpha virt. eigenvalues --    1.56330   1.56847   1.57911   1.58459   1.60192
 Alpha virt. eigenvalues --    1.60988   1.61520   1.62725   1.63578   1.64718
 Alpha virt. eigenvalues --    1.64817   1.65979   1.67769   1.68391   1.68787
 Alpha virt. eigenvalues --    1.69301   1.70027   1.70307   1.70857   1.71199
 Alpha virt. eigenvalues --    1.72935   1.73121   1.73303   1.73915   1.74793
 Alpha virt. eigenvalues --    1.75122   1.75663   1.76438   1.76726   1.76739
 Alpha virt. eigenvalues --    1.77163   1.77674   1.78139   1.78374   1.79131
 Alpha virt. eigenvalues --    1.79407   1.79822   1.80176   1.80363   1.80583
 Alpha virt. eigenvalues --    1.81026   1.81452   1.81727   1.82467   1.82610
 Alpha virt. eigenvalues --    1.83673   1.83910   1.84133   1.84646   1.85653
 Alpha virt. eigenvalues --    1.86011   1.86325   1.86722   1.87280   1.87629
 Alpha virt. eigenvalues --    1.88026   1.88588   1.88808   1.89012   1.89531
 Alpha virt. eigenvalues --    1.90074   1.90683   1.91020   1.91810   1.92263
 Alpha virt. eigenvalues --    1.92637   1.93486   1.93760   1.94786   1.95022
 Alpha virt. eigenvalues --    1.96311   1.97782   1.98187   1.99061   1.99677
 Alpha virt. eigenvalues --    2.00177   2.00468   2.01060   2.01632   2.01961
 Alpha virt. eigenvalues --    2.02511   2.02716   2.02897   2.03649   2.04138
 Alpha virt. eigenvalues --    2.04889   2.05291   2.06258   2.06401   2.06603
 Alpha virt. eigenvalues --    2.06730   2.07428   2.08574   2.08904   2.09919
 Alpha virt. eigenvalues --    2.10527   2.10957   2.11846   2.12123   2.12315
 Alpha virt. eigenvalues --    2.14514   2.16465   2.17311   2.17837   2.18354
 Alpha virt. eigenvalues --    2.18565   2.19158   2.19434   2.21120   2.22079
 Alpha virt. eigenvalues --    2.22458   2.23063   2.23475   2.23665   2.24744
 Alpha virt. eigenvalues --    2.26501   2.26829   2.29257   2.29643   2.30464
 Alpha virt. eigenvalues --    2.30919   2.31102   2.31518   2.31809   2.32465
 Alpha virt. eigenvalues --    2.33625   2.34270   2.35114   2.35528   2.36170
 Alpha virt. eigenvalues --    2.36722   2.37119   2.37540   2.38241   2.38469
 Alpha virt. eigenvalues --    2.38556   2.39065   2.39311   2.39549   2.40286
 Alpha virt. eigenvalues --    2.40839   2.41738   2.42260   2.43574   2.45245
 Alpha virt. eigenvalues --    2.46177   2.46945   2.48625   2.49081   2.49369
 Alpha virt. eigenvalues --    2.52476   2.53431   2.54801   2.56183   2.57969
 Alpha virt. eigenvalues --    2.59189   2.59300   2.60146   2.62457   2.64984
 Alpha virt. eigenvalues --    2.66564   2.66799   2.67533   2.68004   2.68222
 Alpha virt. eigenvalues --    2.68339   2.68505   2.68570   2.68770   2.68859
 Alpha virt. eigenvalues --    2.69022   2.69352   2.69485   2.69550   2.70847
 Alpha virt. eigenvalues --    2.72007   2.72581   2.75860   2.76336   2.77826
 Alpha virt. eigenvalues --    2.78549   2.80061   2.80281   2.80998   2.82216
 Alpha virt. eigenvalues --    2.82584   2.82711   2.83708   2.84363   2.85058
 Alpha virt. eigenvalues --    2.86375   2.86876   2.88116   2.88859   2.90964
 Alpha virt. eigenvalues --    2.92468   2.92644   2.95540   2.98093   2.98706
 Alpha virt. eigenvalues --    2.99088   3.01278   3.03005   3.03908   3.04160
 Alpha virt. eigenvalues --    3.04754   3.07151   3.08104   3.08627   3.10224
 Alpha virt. eigenvalues --    3.10518   3.14346   3.15655   3.15915   3.19063
 Alpha virt. eigenvalues --    3.19923   3.21073   3.22029   3.22623   3.22733
 Alpha virt. eigenvalues --    3.23227   3.23872   3.28566   3.28993   3.31229
 Alpha virt. eigenvalues --    3.36826   3.38739   3.39178   3.42249   3.44365
 Alpha virt. eigenvalues --    3.45736   3.49818   3.51895   3.54034   3.57073
 Alpha virt. eigenvalues --    3.58166   3.59552   3.61042   3.61543   3.61809
 Alpha virt. eigenvalues --    3.62138   3.64034   3.69388   3.70291   3.74854
 Alpha virt. eigenvalues --    3.75189   3.76146   3.76750   3.78037   3.78850
 Alpha virt. eigenvalues --    3.80302   3.90267   3.93519   4.02176   4.05725
 Electronic spatial extent (au):  <R**2>=          23960.2011
 Charge=             -0.0000 electrons
 Dipole moment (field-independent basis, Debye):
    X=             28.7834    Y=              8.4251    Z=             -0.3501  Tot=             29.9932
 Quadrupole moment (field-independent basis, Debye-Ang):
   XX=           -404.0796   YY=           -239.0142   ZZ=           -255.3090
   XY=            -38.8088   XZ=             16.4756   YZ=             21.8725
 Traceless Quadrupole moment (field-independent basis, Debye-Ang):
   XX=           -104.6120   YY=             60.4534   ZZ=             44.1586
   XY=            -38.8088   XZ=             16.4756   YZ=             21.8725
 Octapole moment (field-independent basis, Debye-Ang**2):
  XXX=            884.0179  YYY=             14.7520  ZZZ=             17.1840  XYY=             95.4366
  XXY=            342.5168  XXZ=           -130.6093  XZZ=              2.7236  YZZ=             -6.2032
  YYZ=              5.8706  XYZ=              4.4512
 Hexadecapole moment (field-independent basis, Debye-Ang**3):
 XXXX=         -22198.7275 YYYY=          -7243.5807 ZZZZ=          -5638.4467 XXXY=          -1354.4962
 XXXZ=            351.1967 YYYX=             57.4047 YYYZ=            194.4216 ZZZX=            176.5245
 ZZZY=            138.3207 XXYY=          -4374.0116 XXZZ=          -3842.4800 YYZZ=          -1954.6487
 XXYZ=            211.0757 YYXZ=            -24.2185 ZZXY=           -166.0480
 N-N= 6.625096213329D+03 E-N=-2.778699139329D+04  KE= 6.117233932187D+03
 D1PCM: PCM CHGder 1st derivatives, ID1Alg=3 FixD1E=F DoIter=F DoCFld=F I1PDM=0.
 Calling FoFJK, ICntrl=      2127 FMM=T ISym2X=0 I1Cent= 0 IOpClX= 0 NMat=1 NMatS=1 NMatT=0.
 -------------------------------------------------------------------
 Center     Atomic                   Forces (Hartrees/Bohr)
 Number     Number              X              Y              Z
 -------------------------------------------------------------------
      1       25           0.000000502   -0.000002848   -0.000018903
      2        6           0.000015192    0.000000982    0.000011107
      3        8          -0.000013246   -0.000003613   -0.000003104
      4        6          -0.000003375    0.000002179   -0.000003708
      5        8           0.000002015   -0.000000294   -0.000000281
      6        6           0.000001341   -0.000003836   -0.000004081
      7        7           0.000002733   -0.000000270   -0.000010697
      8        6          -0.000131666   -0.000135923    0.000145530
      9        6          -0.000007746   -0.000009683   -0.000009734
     10        6           0.000001869   -0.000002705    0.000005859
     11        1           0.000146468    0.000143005   -0.000124960
     12        1           0.000002173    0.000001441    0.000011183
     13        7          -0.000005292    0.000009963    0.000009458
     14        6          -0.000000219    0.000001893   -0.000002462
     15        6          -0.000006459   -0.000008261   -0.000002008
     16        6           0.000002668    0.000004207    0.000003799
     17        6           0.000000467    0.000003442    0.000002082
     18        6          -0.000012870    0.000029222   -0.000006878
     19        1          -0.000001054    0.000002118    0.000001129
     20        1           0.000012876   -0.000008459    0.000011580
     21        7           0.000003274    0.000000238   -0.000006721
     22        6           0.000002570    0.000004162   -0.000003502
     23        6          -0.000000349    0.000002828   -0.000004575
     24        1          -0.000000024   -0.000014905   -0.000002298
     25        6          -0.000006898    0.000002762   -0.000002148
     26        1           0.000000240   -0.000000483    0.000006237
     27        6           0.000000117   -0.000000749   -0.000000701
     28        1           0.000001648    0.000002918   -0.000003193
     29        1           0.000000182    0.000002803   -0.000000879
     30        8          -0.000000963   -0.000003511    0.000000146
     31       16           0.000000410   -0.000003010   -0.000001209
     32       16           0.000000399   -0.000001073    0.000000740
     33        6          -0.000005602   -0.000001850   -0.000007744
     34        6           0.000000007   -0.000002384    0.000001230
     35        6          -0.000000762   -0.000005791    0.000005637
     36        6          -0.000000744   -0.000002571    0.000001991
     37        6          -0.000001193   -0.000003201    0.000002192
     38        6          -0.000001783   -0.000001666    0.000001531
     39        6           0.000000132    0.000004276   -0.000002669
     40        1          -0.000000798   -0.000002753    0.000002650
     41        1          -0.000000900   -0.000003827    0.000003176
     42        1          -0.000000646   -0.000003111    0.000002009
     43        6           0.000002205   -0.000005019    0.000000024
     44        6           0.000000106   -0.000001813   -0.000001434
     45        6          -0.000000025   -0.000001804   -0.000000566
     46        6          -0.000001392   -0.000001356   -0.000001200
     47        6           0.000001595   -0.000000127   -0.000004564
     48        6           0.000000340    0.000001516   -0.000000698
     49        1           0.000000016   -0.000001902   -0.000001491
     50        1           0.000000679   -0.000001407   -0.000003253
     51        1           0.000000843   -0.000000488   -0.000002682
     52        6          -0.000000538    0.000001816   -0.000001567
     53        1           0.000001593    0.000002135   -0.000002636
     54        6           0.000000812    0.000002601   -0.000003979
     55        1          -0.000000564   -0.000000095   -0.000000269
     56        1           0.000000112   -0.000000886    0.000003021
     57        6          -0.000002163    0.000001207    0.000003695
     58        6           0.000005365    0.000003496   -0.000000439
     59        1          -0.000000753    0.000001829    0.000002975
     60        1           0.000000109    0.000002841    0.000000948
     61       35          -0.000003033    0.000005795    0.000007302
 -------------------------------------------------------------------
 Cartesian Forces:  Max     0.000146468 RMS     0.000025501
 NDeriv=    183 NFrqRd=  0 NDerD0=      0 MskFDP=       0 MskDFD=       0 MskDF0=       0
 Re-enter D2Numr:  atom  11 IXYZ=3 step-up   number 1
 Basis read from rwf:  (5D, 7F)
   749 basis functions,  1349 primitive gaussians,   800 cartesian basis functions
   174 alpha electrons      174 beta electrons
       nuclear repulsion energy      6625.1677289759 Hartrees.
 NAtoms=   61 NActive=   61 NUniq=   61 SFac= 1.00D+00 NAtFMM=   60 NAOKFM=T Big=T
 Integral buffers will be    131072 words long.
 Raffenetti 2 integral format.
 Two-electron integral symmetry is turned off.
 Nuclear repulsion after empirical dispersion term =     6625.0982915067 Hartrees.
 ------------------------------------------------------------------------------
 Polarizable Continuum Model (PCM)
 =================================
 Model                : PCM.
 Atomic radii         : UFF (Universal Force Field).
 Polarization charges : Total charges.
 Charge compensation  : None.
 Solution method      : On-the-fly selection.
 Cavity type          : Scaled VdW (van der Waals Surface) (Alpha=1.100).
 Cavity algorithm     : GePol (No added spheres)
                        Default sphere list used, NSphG=   61.
                        Lebedev-Laikov grids with approx.  5.0 points / Ang**2.
                        Smoothing algorithm: York/Karplus (Gamma=1.0000).
                        Polarization charges: spherical gaussians, with
                                              point-specific exponents (IZeta= 3).
                        Self-potential: point-specific (ISelfS= 7).
                        Self-field    : sphere-specific E.n sum rule (ISelfD= 2).
 1st derivatives      : Analytical E(r).r(x)/FMM algorithm (CHGder, D1EAlg=3).
                        Cavity 1st derivative terms included.
 Solvent              : TetraHydroFuran, Eps=   7.425700 Eps(inf)=   1.974025
 ------------------------------------------------------------------------------
 One-electron integrals computed using PRISM.
 NBasis=   749 RedAO= T EigKep=  2.25D-04  NBF=   749
 NBsUse=   749 1.00D-06 EigRej= -1.00D+00 NBFU=   749
 Initial guess from the checkpoint file:  "checkpoint.chk"
 B after Tr=    -0.000000   -0.000000   -0.000005
         Rot=    1.000000   -0.000001    0.000000   -0.000000 Ang=  -0.00 deg.
 Requested convergence on RMS density matrix=1.00D-08 within 128 cycles.
 Requested convergence on MAX density matrix=1.00D-06.
 Requested convergence on             energy=1.00D-06.
 No special actions if energy rises.
 Inv3:  Mode=1 IEnd=    68516523.
 Iteration    1 A*A^-1 deviation from unit magnitude is 3.44D-15 for   3952.
 Iteration    1 A*A^-1 deviation from orthogonality  is 2.07D-15 for   4029   2481.
 Iteration    1 A^-1*A deviation from unit magnitude is 3.44D-15 for   3669.
 Iteration    1 A^-1*A deviation from orthogonality  is 8.52D-14 for   4139   4127.
 Error on total polarization charges =  0.02602
 SCF Done:  E(RwB97XD) =  -6140.23096113     A.U. after    6 cycles
            NFock=  6  Conv=0.59D-08     -V/T= 2.0038

 **********************************************************************

            Population analysis using the SCF density.

 **********************************************************************

 Alpha  occ. eigenvalues -- -482.95274-235.72055 -89.04536 -89.04091 -62.53342
 Alpha  occ. eigenvalues --  -56.33893 -56.33892 -56.33891 -27.48762 -23.54725
 Alpha  occ. eigenvalues --  -23.54308 -23.54256 -19.35890 -19.35743 -19.35553
 Alpha  occ. eigenvalues --  -14.51751 -14.51205 -14.46906 -10.43294 -10.43207
 Alpha  occ. eigenvalues --  -10.43151 -10.37940 -10.37528 -10.37465 -10.36705
 Alpha  occ. eigenvalues --  -10.36397 -10.36273 -10.36251 -10.35967 -10.35873
 Alpha  occ. eigenvalues --  -10.35784 -10.35367 -10.35316 -10.34886 -10.34818
 Alpha  occ. eigenvalues --  -10.34720 -10.34665 -10.34122 -10.33604 -10.33514
 Alpha  occ. eigenvalues --  -10.33191 -10.33153 -10.33032 -10.32999 -10.32798
 Alpha  occ. eigenvalues --  -10.32783 -10.32738 -10.32598 -10.32517 -10.32473
 Alpha  occ. eigenvalues --   -8.70110  -8.09548  -8.09237  -6.51786  -6.51784
 Alpha  occ. eigenvalues --   -6.51780  -6.05014  -6.04697  -6.04622  -6.04302
 Alpha  occ. eigenvalues --   -6.03987  -6.03671  -3.28234  -2.62295  -2.62294
 Alpha  occ. eigenvalues --   -2.62290  -2.62289  -2.62288  -2.14136  -2.13168
 Alpha  occ. eigenvalues --   -2.13036  -1.24869  -1.24718  -1.24483  -1.09363
 Alpha  occ. eigenvalues --   -1.08622  -1.02442  -1.01582  -0.99216  -0.98078
 Alpha  occ. eigenvalues --   -0.95323  -0.94128  -0.92543  -0.91840  -0.90419
 Alpha  occ. eigenvalues --   -0.88960  -0.88354  -0.86888  -0.86611  -0.85994
 Alpha  occ. eigenvalues --   -0.83388  -0.79267  -0.76915  -0.76365  -0.76235
 Alpha  occ. eigenvalues --   -0.75576  -0.74968  -0.74415  -0.72791  -0.72229
 Alpha  occ. eigenvalues --   -0.71061  -0.70412  -0.69290  -0.67524  -0.66320
 Alpha  occ. eigenvalues --   -0.66129  -0.65994  -0.65700  -0.64996  -0.62868
 Alpha  occ. eigenvalues --   -0.62405  -0.61612  -0.60465  -0.59532  -0.59414
 Alpha  occ. eigenvalues --   -0.58657  -0.58201  -0.57944  -0.57841  -0.57743
 Alpha  occ. eigenvalues --   -0.57562  -0.57459  -0.57337  -0.56434  -0.56253
 Alpha  occ. eigenvalues --   -0.55610  -0.55176  -0.55019  -0.54838  -0.54367
 Alpha  occ. eigenvalues --   -0.53777  -0.53550  -0.53262  -0.53050  -0.52988
 Alpha  occ. eigenvalues --   -0.52770  -0.52510  -0.51950  -0.51927  -0.50948
 Alpha  occ. eigenvalues --   -0.49989  -0.49573  -0.48878  -0.48693  -0.48410
 Alpha  occ. eigenvalues --   -0.47954  -0.46349  -0.46238  -0.45913  -0.45812
 Alpha  occ. eigenvalues --   -0.44849  -0.44771  -0.44034  -0.43757  -0.42954
 Alpha  occ. eigenvalues --   -0.42359  -0.41313  -0.40788  -0.40347  -0.38925
 Alpha  occ. eigenvalues --   -0.38039  -0.37431  -0.35993  -0.35739  -0.35224
 Alpha  occ. eigenvalues --   -0.34727  -0.34487  -0.34275  -0.33381  -0.31674
 Alpha  occ. eigenvalues --   -0.30543  -0.29606  -0.29565  -0.29543
 Alpha virt. eigenvalues --   -0.02508  -0.00512  -0.00122   0.00236   0.00647
 Alpha virt. eigenvalues --    0.01212   0.01913   0.02828   0.03132   0.03463
 Alpha virt. eigenvalues --    0.03689   0.04094   0.04491   0.05581   0.05819
 Alpha virt. eigenvalues --    0.08208   0.08605   0.08738   0.08856   0.09358
 Alpha virt. eigenvalues --    0.10019   0.10630   0.12159   0.12468   0.13375
 Alpha virt. eigenvalues --    0.13504   0.13894   0.14354   0.14412   0.15198
 Alpha virt. eigenvalues --    0.15844   0.15997   0.16216   0.17147   0.17577
 Alpha virt. eigenvalues --    0.18171   0.18309   0.18730   0.18902   0.19422
 Alpha virt. eigenvalues --    0.19708   0.20135   0.20949   0.21042   0.21420
 Alpha virt. eigenvalues --    0.21650   0.21888   0.22412   0.23095   0.23245
 Alpha virt. eigenvalues --    0.23581   0.23701   0.24057   0.24594   0.25250
 Alpha virt. eigenvalues --    0.25882   0.26614   0.26870   0.27642   0.28156
 Alpha virt. eigenvalues --    0.28423   0.28819   0.29452   0.30431   0.31286
 Alpha virt. eigenvalues --    0.31866   0.32096   0.32295   0.32645   0.32921
 Alpha virt. eigenvalues --    0.33234   0.33413   0.34226   0.34821   0.34831
 Alpha virt. eigenvalues --    0.35323   0.35687   0.36117   0.36476   0.36864
 Alpha virt. eigenvalues --    0.37373   0.37543   0.37880   0.38575   0.38730
 Alpha virt. eigenvalues --    0.39147   0.39446   0.39808   0.40482   0.40928
 Alpha virt. eigenvalues --    0.41549   0.42054   0.42532   0.42692   0.43283
 Alpha virt. eigenvalues --    0.44392   0.44629   0.45784   0.46290   0.46588
 Alpha virt. eigenvalues --    0.47373   0.47499   0.48000   0.48202   0.48686
 Alpha virt. eigenvalues --    0.49251   0.49425   0.49711   0.50804   0.50998
 Alpha virt. eigenvalues --    0.51072   0.51622   0.52106   0.52223   0.52655
 Alpha virt. eigenvalues --    0.53007   0.53430   0.53700   0.53915   0.54335
 Alpha virt. eigenvalues --    0.54650   0.54794   0.55073   0.55417   0.55630
 Alpha virt. eigenvalues --    0.56451   0.56670   0.56969   0.57336   0.57968
 Alpha virt. eigenvalues --    0.58473   0.58775   0.59981   0.60265   0.60496
 Alpha virt. eigenvalues --    0.60709   0.60985   0.61106   0.61984   0.62670
 Alpha virt. eigenvalues --    0.63621   0.63811   0.64164   0.64593   0.64866
 Alpha virt. eigenvalues --    0.65164   0.65317   0.65927   0.66179   0.66456
 Alpha virt. eigenvalues --    0.66593   0.67163   0.67515   0.68571   0.69031
 Alpha virt. eigenvalues --    0.69122   0.69719   0.69869   0.70715   0.70891
 Alpha virt. eigenvalues --    0.71163   0.71430   0.71631   0.71745   0.71883
 Alpha virt. eigenvalues --    0.72190   0.72496   0.72865   0.73034   0.73210
 Alpha virt. eigenvalues --    0.73610   0.73950   0.74120   0.74500   0.75106
 Alpha virt. eigenvalues --    0.75420   0.75620   0.76065   0.76351   0.76811
 Alpha virt. eigenvalues --    0.77311   0.77499   0.77678   0.77775   0.78096
 Alpha virt. eigenvalues --    0.78188   0.79063   0.79462   0.79649   0.80219
 Alpha virt. eigenvalues --    0.80395   0.80656   0.81121   0.81378   0.82178
 Alpha virt. eigenvalues --    0.82229   0.82552   0.82729   0.83166   0.83486
 Alpha virt. eigenvalues --    0.83690   0.83765   0.84155   0.84360   0.84484
 Alpha virt. eigenvalues --    0.84614   0.85256   0.85656   0.85879   0.85972
 Alpha virt. eigenvalues --    0.86056   0.86475   0.87038   0.87340   0.87460
 Alpha virt. eigenvalues --    0.87918   0.88306   0.88744   0.89196   0.89261
 Alpha virt. eigenvalues --    0.89623   0.90062   0.90497   0.90792   0.91022
 Alpha virt. eigenvalues --    0.91246   0.92241   0.92356   0.92597   0.93382
 Alpha virt. eigenvalues --    0.93831   0.94100   0.94703   0.95287   0.95859
 Alpha virt. eigenvalues --    0.96580   0.97206   0.97389   0.98976   0.99720
 Alpha virt. eigenvalues --    0.99996   1.00923   1.01637   1.02535   1.02782
 Alpha virt. eigenvalues --    1.03161   1.04268   1.05067   1.05911   1.06497
 Alpha virt. eigenvalues --    1.07188   1.07705   1.09125   1.09360   1.10365
 Alpha virt. eigenvalues --    1.11020   1.11692   1.11981   1.12274   1.13056
 Alpha virt. eigenvalues --    1.13364   1.13462   1.14563   1.15282   1.15862
 Alpha virt. eigenvalues --    1.16354   1.16547   1.17675   1.19461   1.19894
 Alpha virt. eigenvalues --    1.20158   1.21353   1.22144   1.22669   1.23513
 Alpha virt. eigenvalues --    1.23945   1.24439   1.25047   1.25723   1.26910
 Alpha virt. eigenvalues --    1.27364   1.27959   1.28114   1.28900   1.29006
 Alpha virt. eigenvalues --    1.29509   1.29624   1.29980   1.30281   1.31130
 Alpha virt. eigenvalues --    1.31906   1.32440   1.32802   1.33066   1.34343
 Alpha virt. eigenvalues --    1.34836   1.35096   1.35687   1.35924   1.36018
 Alpha virt. eigenvalues --    1.36432   1.36567   1.37066   1.37268   1.37679
 Alpha virt. eigenvalues --    1.38600   1.39204   1.39459   1.40421   1.41316
 Alpha virt. eigenvalues --    1.42248   1.44175   1.45984   1.47449   1.48014
 Alpha virt. eigenvalues --    1.48783   1.49835   1.51050   1.52914   1.54597
 Alpha virt. eigenvalues --    1.56330   1.56844   1.57911   1.58460   1.60191
 Alpha virt. eigenvalues --    1.60982   1.61520   1.62729   1.63579   1.64718
 Alpha virt. eigenvalues --    1.64817   1.65979   1.67768   1.68391   1.68788
 Alpha virt. eigenvalues --    1.69302   1.70028   1.70307   1.70857   1.71199
 Alpha virt. eigenvalues --    1.72935   1.73120   1.73303   1.73915   1.74795
 Alpha virt. eigenvalues --    1.75122   1.75664   1.76438   1.76726   1.76738
 Alpha virt. eigenvalues --    1.77163   1.77674   1.78140   1.78375   1.79132
 Alpha virt. eigenvalues --    1.79408   1.79821   1.80176   1.80363   1.80584
 Alpha virt. eigenvalues --    1.81029   1.81456   1.81728   1.82467   1.82610
 Alpha virt. eigenvalues --    1.83673   1.83913   1.84135   1.84661   1.85654
 Alpha virt. eigenvalues --    1.86012   1.86326   1.86723   1.87280   1.87629
 Alpha virt. eigenvalues --    1.88025   1.88585   1.88808   1.89012   1.89531
 Alpha virt. eigenvalues --    1.90075   1.90682   1.91020   1.91812   1.92264
 Alpha virt. eigenvalues --    1.92633   1.93486   1.93761   1.94787   1.95021
 Alpha virt. eigenvalues --    1.96314   1.97782   1.98189   1.99061   1.99677
 Alpha virt. eigenvalues --    2.00181   2.00469   2.01061   2.01631   2.01964
 Alpha virt. eigenvalues --    2.02512   2.02719   2.02898   2.03650   2.04151
 Alpha virt. eigenvalues --    2.04891   2.05292   2.06259   2.06403   2.06604
 Alpha virt. eigenvalues --    2.06729   2.07433   2.08574   2.08905   2.09920
 Alpha virt. eigenvalues --    2.10527   2.10958   2.11848   2.12123   2.12315
 Alpha virt. eigenvalues --    2.14516   2.16469   2.17311   2.17840   2.18354
 Alpha virt. eigenvalues --    2.18565   2.19161   2.19440   2.21120   2.22086
 Alpha virt. eigenvalues --    2.22459   2.23063   2.23475   2.23666   2.24742
 Alpha virt. eigenvalues --    2.26501   2.26834   2.29257   2.29643   2.30467
 Alpha virt. eigenvalues --    2.30920   2.31103   2.31518   2.31809   2.32464
 Alpha virt. eigenvalues --    2.33627   2.34271   2.35114   2.35529   2.36178
 Alpha virt. eigenvalues --    2.36722   2.37117   2.37539   2.38241   2.38471
 Alpha virt. eigenvalues --    2.38557   2.39065   2.39311   2.39551   2.40285
 Alpha virt. eigenvalues --    2.40844   2.41744   2.42260   2.43576   2.45245
 Alpha virt. eigenvalues --    2.46179   2.46945   2.48625   2.49081   2.49379
 Alpha virt. eigenvalues --    2.52477   2.53432   2.54803   2.56185   2.57970
 Alpha virt. eigenvalues --    2.59191   2.59300   2.60147   2.62458   2.64985
 Alpha virt. eigenvalues --    2.66566   2.66799   2.67533   2.68004   2.68222
 Alpha virt. eigenvalues --    2.68339   2.68505   2.68570   2.68770   2.68859
 Alpha virt. eigenvalues --    2.69022   2.69352   2.69485   2.69550   2.70848
 Alpha virt. eigenvalues --    2.72008   2.72586   2.75860   2.76337   2.77828
 Alpha virt. eigenvalues --    2.78549   2.80061   2.80285   2.81003   2.82240
 Alpha virt. eigenvalues --    2.82605   2.82715   2.83710   2.84365   2.85059
 Alpha virt. eigenvalues --    2.86375   2.86876   2.88116   2.88868   2.90966
 Alpha virt. eigenvalues --    2.92469   2.92644   2.95540   2.98096   2.98706
 Alpha virt. eigenvalues --    2.99095   3.01279   3.03005   3.03909   3.04161
 Alpha virt. eigenvalues --    3.04758   3.07151   3.08106   3.08641   3.10225
 Alpha virt. eigenvalues --    3.10518   3.14347   3.15656   3.15915   3.19065
 Alpha virt. eigenvalues --    3.19948   3.21074   3.22028   3.22624   3.22734
 Alpha virt. eigenvalues --    3.23227   3.23873   3.28566   3.28993   3.31229
 Alpha virt. eigenvalues --    3.36831   3.38740   3.39181   3.42249   3.44365
 Alpha virt. eigenvalues --    3.45736   3.49818   3.51895   3.54034   3.57074
 Alpha virt. eigenvalues --    3.58167   3.59552   3.61042   3.61543   3.61809
 Alpha virt. eigenvalues --    3.62138   3.64034   3.69389   3.70303   3.74854
 Alpha virt. eigenvalues --    3.75189   3.76146   3.76750   3.78037   3.78850
 Alpha virt. eigenvalues --    3.80302   3.90267   3.93519   4.02176   4.05725
 Electronic spatial extent (au):  <R**2>=          23960.1996
 Charge=             -0.0000 electrons
 Dipole moment (field-independent basis, Debye):
    X=             28.7831    Y=              8.4248    Z=             -0.3513  Tot=             29.9928
 Quadrupole moment (field-independent basis, Debye-Ang):
   XX=           -404.0790   YY=           -239.0121   ZZ=           -255.3092
   XY=            -38.8072   XZ=             16.4794   YZ=             21.8774
 Traceless Quadrupole moment (field-independent basis, Debye-Ang):
   XX=           -104.6122   YY=             60.4547   ZZ=             44.1576
   XY=            -38.8072   XZ=             16.4794   YZ=             21.8774
 Octapole moment (field-independent basis, Debye-Ang**2):
  XXX=            884.0132  YYY=             14.7383  ZZZ=             17.1884  XYY=             95.4280
  XXY=            342.5115  XXZ=           -130.6176  XZZ=              2.7214  YZZ=             -6.2040
  YYZ=              5.8526  XYZ=              4.4350
 Hexadecapole moment (field-independent basis, Debye-Ang**3):
 XXXX=         -22198.7378 YYYY=          -7243.5107 ZZZZ=          -5638.4532 XXXY=          -1354.4716
 XXXZ=            351.2115 YYYX=             57.4493 YYYZ=            194.4812 ZZZX=            176.5119
 ZZZY=            138.3061 XXYY=          -4373.9870 XXZZ=          -3842.4787 YYZZ=          -1954.6460
 XXYZ=            211.1148 YYXZ=            -24.1605 ZZXY=           -166.0407
 N-N= 6.625098291507D+03 E-N=-2.778699628570D+04  KE= 6.117234819464D+03
 D1PCM: PCM CHGder 1st derivatives, ID1Alg=3 FixD1E=F DoIter=F DoCFld=F I1PDM=0.
 Calling FoFJK, ICntrl=      2127 FMM=T ISym2X=0 I1Cent= 0 IOpClX= 0 NMat=1 NMatS=1 NMatT=0.
 -------------------------------------------------------------------
 Center     Atomic                   Forces (Hartrees/Bohr)
 Number     Number              X              Y              Z
 -------------------------------------------------------------------
      1       25           0.000000465   -0.000003245   -0.000019089
      2        6           0.000015275    0.000000910    0.000011133
      3        8          -0.000013296   -0.000003524   -0.000003106
      4        6          -0.000002949    0.000002297   -0.000003371
      5        8           0.000001659   -0.000000401   -0.000000557
      6        6           0.000001351   -0.000003776   -0.000003848
      7        7           0.000012090    0.000005242    0.000016385
      8        6           0.000133491    0.000134025   -0.000139807
      9        6           0.000002413    0.000008690   -0.000001735
     10        6           0.000000934   -0.000003307    0.000004637
     11        1          -0.000142542   -0.000146441    0.000127581
     12        1          -0.000002821   -0.000002131   -0.000002460
     13        7          -0.000005368    0.000009891    0.000009100
     14        6          -0.000000201    0.000001729   -0.000002529
     15        6          -0.000006240   -0.000008412   -0.000001876
     16        6           0.000002732    0.000004318    0.000003799
     17        6           0.000000455    0.000003517    0.000002096
     18        6          -0.000012931    0.000029250   -0.000006457
     19        1          -0.000001037    0.000002133    0.000001143
     20        1           0.000012081   -0.000008970    0.000011062
     21        7           0.000003507    0.000000353   -0.000006597
     22        6           0.000002590    0.000004178   -0.000003470
     23        6          -0.000000356    0.000002834   -0.000004573
     24        1          -0.000000026   -0.000014897   -0.000002271
     25        6          -0.000001033    0.000002869    0.000003709
     26        1          -0.000003933   -0.000003049   -0.000006123
     27        6           0.000000116   -0.000000834   -0.000000905
     28        1           0.000001670    0.000002921   -0.000003181
     29        1           0.000000183    0.000002811   -0.000000869
     30        8          -0.000000943   -0.000003509    0.000000045
     31       16           0.000000206   -0.000003141   -0.000001647
     32       16           0.000000475   -0.000001069    0.000000712
     33        6           0.000004314    0.000001851    0.000016757
     34        6          -0.000000125   -0.000001628    0.000001466
     35        6          -0.000000814   -0.000005473    0.000005590
     36        6          -0.000000616   -0.000002669    0.000002033
     37        6          -0.000001160   -0.000003282    0.000002106
     38        6          -0.000001839   -0.000001626    0.000001731
     39        6           0.000000426    0.000004140   -0.000002727
     40        1          -0.000000692   -0.000002682    0.000002565
     41        1          -0.000000859   -0.000003863    0.000003150
     42        1          -0.000000601   -0.000003100    0.000001976
     43        6           0.000002218   -0.000005008    0.000000068
     44        6           0.000000127   -0.000001835   -0.000001436
     45        6          -0.000000017   -0.000001790   -0.000000564
     46        6          -0.000001388   -0.000001345   -0.000001200
     47        6           0.000001596   -0.000000130   -0.000004571
     48        6           0.000000343    0.000001523   -0.000000690
     49        1           0.000000016   -0.000001903   -0.000001489
     50        1           0.000000680   -0.000001406   -0.000003251
     51        1           0.000000843   -0.000000487   -0.000002680
     52        6          -0.000000615    0.000001791   -0.000001668
     53        1           0.000001609    0.000002140   -0.000002616
     54        6           0.000000632    0.000002610   -0.000003969
     55        1          -0.000000579   -0.000000061   -0.000000191
     56        1          -0.000001437   -0.000001956   -0.000000928
     57        6          -0.000002142    0.000001155    0.000003650
     58        6           0.000005501    0.000003662   -0.000000361
     59        1          -0.000000786    0.000001814    0.000002982
     60        1           0.000000133    0.000002851    0.000000970
     61       35          -0.000002785    0.000005446    0.000006370
 -------------------------------------------------------------------
 Cartesian Forces:  Max     0.000146441 RMS     0.000025397
 NDeriv=    183 NFrqRd=  0 NDerD0=      0 MskFDP=       0 MskDFD=       0 MskDF0=       0
 Re-enter D2Numr:  atom  11 IXYZ=3 step-down number 1
 Basis read from rwf:  (5D, 7F)
   749 basis functions,  1349 primitive gaussians,   800 cartesian basis functions
   174 alpha electrons      174 beta electrons
       nuclear repulsion energy      6625.1662444403 Hartrees.
 NAtoms=   61 NActive=   61 NUniq=   61 SFac= 1.00D+00 NAtFMM=   60 NAOKFM=T Big=T
 Integral buffers will be    131072 words long.
 Raffenetti 2 integral format.
 Two-electron integral symmetry is turned off.
 Nuclear repulsion after empirical dispersion term =     6625.0968066809 Hartrees.
 ------------------------------------------------------------------------------
 Polarizable Continuum Model (PCM)
 =================================
 Model                : PCM.
 Atomic radii         : UFF (Universal Force Field).
 Polarization charges : Total charges.
 Charge compensation  : None.
 Solution method      : On-the-fly selection.
 Cavity type          : Scaled VdW (van der Waals Surface) (Alpha=1.100).
 Cavity algorithm     : GePol (No added spheres)
                        Default sphere list used, NSphG=   61.
                        Lebedev-Laikov grids with approx.  5.0 points / Ang**2.
                        Smoothing algorithm: York/Karplus (Gamma=1.0000).
                        Polarization charges: spherical gaussians, with
                                              point-specific exponents (IZeta= 3).
                        Self-potential: point-specific (ISelfS= 7).
                        Self-field    : sphere-specific E.n sum rule (ISelfD= 2).
 1st derivatives      : Analytical E(r).r(x)/FMM algorithm (CHGder, D1EAlg=3).
                        Cavity 1st derivative terms included.
 Solvent              : TetraHydroFuran, Eps=   7.425700 Eps(inf)=   1.974025
 ------------------------------------------------------------------------------
 One-electron integrals computed using PRISM.
 NBasis=   749 RedAO= T EigKep=  2.25D-04  NBF=   749
 NBsUse=   749 1.00D-06 EigRej= -1.00D+00 NBFU=   749
 Initial guess from the checkpoint file:  "checkpoint.chk"
 B after Tr=     0.000005    0.000000    0.000000
         Rot=    1.000000   -0.000000    0.000000   -0.000000 Ang=   0.00 deg.
 Requested convergence on RMS density matrix=1.00D-08 within 128 cycles.
 Requested convergence on MAX density matrix=1.00D-06.
 Requested convergence on             energy=1.00D-06.
 No special actions if energy rises.
 Inv3:  Mode=1 IEnd=    68516523.
 Iteration    1 A*A^-1 deviation from unit magnitude is 4.33D-15 for   1489.
 Iteration    1 A*A^-1 deviation from orthogonality  is 2.44D-15 for   3057   1094.
 Iteration    1 A^-1*A deviation from unit magnitude is 3.66D-15 for   1489.
 Iteration    1 A^-1*A deviation from orthogonality  is 8.96D-14 for   4139   4127.
 Error on total polarization charges =  0.02602
 SCF Done:  E(RwB97XD) =  -6140.23096110     A.U. after    6 cycles
            NFock=  6  Conv=0.46D-08     -V/T= 2.0038

 **********************************************************************

            Population analysis using the SCF density.

 **********************************************************************

 Alpha  occ. eigenvalues -- -482.95274-235.72055 -89.04536 -89.04091 -62.53342
 Alpha  occ. eigenvalues --  -56.33893 -56.33892 -56.33891 -27.48762 -23.54725
 Alpha  occ. eigenvalues --  -23.54308 -23.54256 -19.35890 -19.35743 -19.35553
 Alpha  occ. eigenvalues --  -14.51751 -14.51205 -14.46906 -10.43294 -10.43207
 Alpha  occ. eigenvalues --  -10.43151 -10.37940 -10.37528 -10.37465 -10.36705
 Alpha  occ. eigenvalues --  -10.36397 -10.36273 -10.36251 -10.35967 -10.35873
 Alpha  occ. eigenvalues --  -10.35784 -10.35367 -10.35316 -10.34886 -10.34817
 Alpha  occ. eigenvalues --  -10.34723 -10.34665 -10.34122 -10.33604 -10.33514
 Alpha  occ. eigenvalues --  -10.33195 -10.33153 -10.33032 -10.32999 -10.32799
 Alpha  occ. eigenvalues --  -10.32783 -10.32738 -10.32598 -10.32517 -10.32473
 Alpha  occ. eigenvalues --   -8.70110  -8.09548  -8.09237  -6.51786  -6.51784
 Alpha  occ. eigenvalues --   -6.51780  -6.05015  -6.04697  -6.04622  -6.04302
 Alpha  occ. eigenvalues --   -6.03987  -6.03671  -3.28234  -2.62295  -2.62294
 Alpha  occ. eigenvalues --   -2.62291  -2.62289  -2.62288  -2.14136  -2.13168
 Alpha  occ. eigenvalues --   -2.13036  -1.24869  -1.24718  -1.24483  -1.09363
 Alpha  occ. eigenvalues --   -1.08623  -1.02442  -1.01583  -0.99217  -0.98078
 Alpha  occ. eigenvalues --   -0.95323  -0.94127  -0.92543  -0.91840  -0.90419
 Alpha  occ. eigenvalues --   -0.88960  -0.88354  -0.86888  -0.86611  -0.85994
 Alpha  occ. eigenvalues --   -0.83388  -0.79267  -0.76915  -0.76364  -0.76234
 Alpha  occ. eigenvalues --   -0.75576  -0.74968  -0.74415  -0.72791  -0.72229
 Alpha  occ. eigenvalues --   -0.71060  -0.70411  -0.69290  -0.67524  -0.66320
 Alpha  occ. eigenvalues --   -0.66129  -0.65994  -0.65700  -0.64994  -0.62868
 Alpha  occ. eigenvalues --   -0.62404  -0.61612  -0.60465  -0.59532  -0.59414
 Alpha  occ. eigenvalues --   -0.58657  -0.58201  -0.57944  -0.57840  -0.57743
 Alpha  occ. eigenvalues --   -0.57561  -0.57459  -0.57336  -0.56434  -0.56253
 Alpha  occ. eigenvalues --   -0.55610  -0.55176  -0.55018  -0.54838  -0.54367
 Alpha  occ. eigenvalues --   -0.53777  -0.53549  -0.53261  -0.53049  -0.52988
 Alpha  occ. eigenvalues --   -0.52770  -0.52510  -0.51949  -0.51926  -0.50948
 Alpha  occ. eigenvalues --   -0.49988  -0.49573  -0.48878  -0.48693  -0.48410
 Alpha  occ. eigenvalues --   -0.47954  -0.46349  -0.46238  -0.45914  -0.45812
 Alpha  occ. eigenvalues --   -0.44849  -0.44771  -0.44034  -0.43757  -0.42955
 Alpha  occ. eigenvalues --   -0.42358  -0.41312  -0.40788  -0.40347  -0.38925
 Alpha  occ. eigenvalues --   -0.38039  -0.37431  -0.35993  -0.35739  -0.35224
 Alpha  occ. eigenvalues --   -0.34727  -0.34487  -0.34275  -0.33381  -0.31674
 Alpha  occ. eigenvalues --   -0.30543  -0.29606  -0.29565  -0.29543
 Alpha virt. eigenvalues --   -0.02508  -0.00512  -0.00122   0.00236   0.00647
 Alpha virt. eigenvalues --    0.01211   0.01913   0.02828   0.03132   0.03463
 Alpha virt. eigenvalues --    0.03689   0.04094   0.04491   0.05581   0.05819
 Alpha virt. eigenvalues --    0.08208   0.08605   0.08738   0.08856   0.09358
 Alpha virt. eigenvalues --    0.10019   0.10630   0.12159   0.12467   0.13375
 Alpha virt. eigenvalues --    0.13504   0.13894   0.14354   0.14412   0.15198
 Alpha virt. eigenvalues --    0.15844   0.15997   0.16215   0.17145   0.17577
 Alpha virt. eigenvalues --    0.18171   0.18309   0.18730   0.18902   0.19422
 Alpha virt. eigenvalues --    0.19708   0.20135   0.20949   0.21042   0.21420
 Alpha virt. eigenvalues --    0.21650   0.21885   0.22412   0.23095   0.23245
 Alpha virt. eigenvalues --    0.23580   0.23701   0.24056   0.24594   0.25250
 Alpha virt. eigenvalues --    0.25882   0.26614   0.26870   0.27641   0.28156
 Alpha virt. eigenvalues --    0.28423   0.28819   0.29449   0.30431   0.31286
 Alpha virt. eigenvalues --    0.31866   0.32096   0.32295   0.32645   0.32921
 Alpha virt. eigenvalues --    0.33234   0.33413   0.34226   0.34821   0.34831
 Alpha virt. eigenvalues --    0.35323   0.35687   0.36117   0.36475   0.36864
 Alpha virt. eigenvalues --    0.37373   0.37543   0.37880   0.38575   0.38731
 Alpha virt. eigenvalues --    0.39147   0.39447   0.39808   0.40482   0.40928
 Alpha virt. eigenvalues --    0.41549   0.42054   0.42531   0.42692   0.43283
 Alpha virt. eigenvalues --    0.44392   0.44630   0.45783   0.46290   0.46588
 Alpha virt. eigenvalues --    0.47373   0.47499   0.47999   0.48201   0.48686
 Alpha virt. eigenvalues --    0.49251   0.49425   0.49711   0.50803   0.50998
 Alpha virt. eigenvalues --    0.51072   0.51622   0.52105   0.52223   0.52655
 Alpha virt. eigenvalues --    0.53007   0.53430   0.53699   0.53914   0.54335
 Alpha virt. eigenvalues --    0.54650   0.54794   0.55073   0.55417   0.55630
 Alpha virt. eigenvalues --    0.56451   0.56670   0.56968   0.57336   0.57968
 Alpha virt. eigenvalues --    0.58472   0.58775   0.59981   0.60265   0.60495
 Alpha virt. eigenvalues --    0.60708   0.60984   0.61106   0.61984   0.62670
 Alpha virt. eigenvalues --    0.63621   0.63810   0.64164   0.64593   0.64866
 Alpha virt. eigenvalues --    0.65164   0.65317   0.65927   0.66179   0.66456
 Alpha virt. eigenvalues --    0.66592   0.67162   0.67514   0.68571   0.69031
 Alpha virt. eigenvalues --    0.69122   0.69718   0.69869   0.70715   0.70891
 Alpha virt. eigenvalues --    0.71163   0.71429   0.71631   0.71744   0.71882
 Alpha virt. eigenvalues --    0.72190   0.72495   0.72865   0.73033   0.73209
 Alpha virt. eigenvalues --    0.73610   0.73949   0.74119   0.74499   0.75106
 Alpha virt. eigenvalues --    0.75419   0.75619   0.76065   0.76351   0.76811
 Alpha virt. eigenvalues --    0.77311   0.77499   0.77678   0.77772   0.78094
 Alpha virt. eigenvalues --    0.78189   0.79062   0.79462   0.79649   0.80220
 Alpha virt. eigenvalues --    0.80395   0.80655   0.81120   0.81377   0.82178
 Alpha virt. eigenvalues --    0.82229   0.82552   0.82729   0.83165   0.83486
 Alpha virt. eigenvalues --    0.83689   0.83765   0.84155   0.84360   0.84483
 Alpha virt. eigenvalues --    0.84613   0.85256   0.85656   0.85879   0.85972
 Alpha virt. eigenvalues --    0.86056   0.86475   0.87037   0.87340   0.87460
 Alpha virt. eigenvalues --    0.87917   0.88305   0.88744   0.89196   0.89260
 Alpha virt. eigenvalues --    0.89623   0.90063   0.90497   0.90792   0.91022
 Alpha virt. eigenvalues --    0.91246   0.92241   0.92356   0.92596   0.93381
 Alpha virt. eigenvalues --    0.93831   0.94100   0.94702   0.95287   0.95858
 Alpha virt. eigenvalues --    0.96580   0.97206   0.97390   0.98975   0.99720
 Alpha virt. eigenvalues --    0.99996   1.00923   1.01638   1.02534   1.02782
 Alpha virt. eigenvalues --    1.03161   1.04267   1.05067   1.05910   1.06496
 Alpha virt. eigenvalues --    1.07188   1.07704   1.09125   1.09359   1.10364
 Alpha virt. eigenvalues --    1.11020   1.11692   1.11981   1.12274   1.13055
 Alpha virt. eigenvalues --    1.13364   1.13460   1.14562   1.15281   1.15864
 Alpha virt. eigenvalues --    1.16355   1.16548   1.17677   1.19461   1.19893
 Alpha virt. eigenvalues --    1.20159   1.21353   1.22145   1.22668   1.23512
 Alpha virt. eigenvalues --    1.23944   1.24441   1.25048   1.25724   1.26910
 Alpha virt. eigenvalues --    1.27367   1.27957   1.28113   1.28898   1.29006
 Alpha virt. eigenvalues --    1.29510   1.29623   1.29979   1.30279   1.31131
 Alpha virt. eigenvalues --    1.31904   1.32440   1.32802   1.33066   1.34343
 Alpha virt. eigenvalues --    1.34835   1.35096   1.35686   1.35925   1.36018
 Alpha virt. eigenvalues --    1.36429   1.36570   1.37066   1.37269   1.37679
 Alpha virt. eigenvalues --    1.38602   1.39204   1.39459   1.40422   1.41316
 Alpha virt. eigenvalues --    1.42247   1.44172   1.45975   1.47449   1.48014
 Alpha virt. eigenvalues --    1.48782   1.49835   1.51048   1.52913   1.54598
 Alpha virt. eigenvalues --    1.56330   1.56846   1.57910   1.58459   1.60192
 Alpha virt. eigenvalues --    1.60986   1.61521   1.62728   1.63578   1.64718
 Alpha virt. eigenvalues --    1.64817   1.65978   1.67769   1.68391   1.68789
 Alpha virt. eigenvalues --    1.69302   1.70027   1.70307   1.70857   1.71199
 Alpha virt. eigenvalues --    1.72935   1.73120   1.73302   1.73915   1.74793
 Alpha virt. eigenvalues --    1.75121   1.75662   1.76438   1.76726   1.76740
 Alpha virt. eigenvalues --    1.77163   1.77672   1.78139   1.78374   1.79130
 Alpha virt. eigenvalues --    1.79406   1.79821   1.80175   1.80359   1.80582
 Alpha virt. eigenvalues --    1.81027   1.81453   1.81726   1.82466   1.82608
 Alpha virt. eigenvalues --    1.83673   1.83911   1.84133   1.84652   1.85653
 Alpha virt. eigenvalues --    1.86011   1.86325   1.86720   1.87281   1.87627
 Alpha virt. eigenvalues --    1.88025   1.88586   1.88808   1.89012   1.89530
 Alpha virt. eigenvalues --    1.90074   1.90685   1.91021   1.91808   1.92263
 Alpha virt. eigenvalues --    1.92638   1.93486   1.93760   1.94788   1.95020
 Alpha virt. eigenvalues --    1.96310   1.97783   1.98188   1.99061   1.99677
 Alpha virt. eigenvalues --    2.00179   2.00468   2.01059   2.01631   2.01963
 Alpha virt. eigenvalues --    2.02512   2.02717   2.02897   2.03649   2.04142
 Alpha virt. eigenvalues --    2.04888   2.05290   2.06258   2.06403   2.06599
 Alpha virt. eigenvalues --    2.06727   2.07430   2.08571   2.08903   2.09919
 Alpha virt. eigenvalues --    2.10527   2.10958   2.11846   2.12123   2.12315
 Alpha virt. eigenvalues --    2.14514   2.16465   2.17310   2.17836   2.18353
 Alpha virt. eigenvalues --    2.18564   2.19158   2.19437   2.21120   2.22082
 Alpha virt. eigenvalues --    2.22457   2.23062   2.23475   2.23665   2.24739
 Alpha virt. eigenvalues --    2.26500   2.26831   2.29257   2.29642   2.30466
 Alpha virt. eigenvalues --    2.30919   2.31101   2.31518   2.31810   2.32462
 Alpha virt. eigenvalues --    2.33626   2.34270   2.35114   2.35529   2.36173
 Alpha virt. eigenvalues --    2.36722   2.37116   2.37538   2.38240   2.38470
 Alpha virt. eigenvalues --    2.38556   2.39065   2.39311   2.39550   2.40286
 Alpha virt. eigenvalues --    2.40841   2.41740   2.42260   2.43575   2.45246
 Alpha virt. eigenvalues --    2.46181   2.46948   2.48621   2.49081   2.49367
 Alpha virt. eigenvalues --    2.52474   2.53430   2.54801   2.56182   2.57969
 Alpha virt. eigenvalues --    2.59189   2.59301   2.60147   2.62458   2.64984
 Alpha virt. eigenvalues --    2.66565   2.66799   2.67533   2.68004   2.68223
 Alpha virt. eigenvalues --    2.68339   2.68505   2.68570   2.68770   2.68859
 Alpha virt. eigenvalues --    2.69022   2.69352   2.69485   2.69550   2.70847
 Alpha virt. eigenvalues --    2.72007   2.72581   2.75860   2.76335   2.77826
 Alpha virt. eigenvalues --    2.78549   2.80060   2.80283   2.80997   2.82229
 Alpha virt. eigenvalues --    2.82572   2.82708   2.83708   2.84364   2.85058
 Alpha virt. eigenvalues --    2.86375   2.86876   2.88116   2.88861   2.90965
 Alpha virt. eigenvalues --    2.92468   2.92644   2.95540   2.98094   2.98705
 Alpha virt. eigenvalues --    2.99091   3.01278   3.03004   3.03908   3.04161
 Alpha virt. eigenvalues --    3.04752   3.07151   3.08105   3.08631   3.10224
 Alpha virt. eigenvalues --    3.10518   3.14343   3.15636   3.15915   3.19065
 Alpha virt. eigenvalues --    3.19940   3.21073   3.22029   3.22623   3.22733
 Alpha virt. eigenvalues --    3.23226   3.23872   3.28566   3.28993   3.31229
 Alpha virt. eigenvalues --    3.36828   3.38740   3.39179   3.42249   3.44365
 Alpha virt. eigenvalues --    3.45736   3.49818   3.51895   3.54034   3.57074
 Alpha virt. eigenvalues --    3.58167   3.59552   3.61042   3.61543   3.61809
 Alpha virt. eigenvalues --    3.62138   3.64034   3.69388   3.70292   3.74854
 Alpha virt. eigenvalues --    3.75189   3.76146   3.76750   3.78037   3.78850
 Alpha virt. eigenvalues --    3.80302   3.90267   3.93519   4.02176   4.05725
 Electronic spatial extent (au):  <R**2>=          23960.1994
 Charge=             -0.0000 electrons
 Dipole moment (field-independent basis, Debye):
    X=             28.7838    Y=              8.4253    Z=             -0.3507  Tot=             29.9936
 Quadrupole moment (field-independent basis, Debye-Ang):
   XX=           -404.0782   YY=           -239.0154   ZZ=           -255.3092
   XY=            -38.8109   XZ=             16.4770   YZ=             21.8749
 Traceless Quadrupole moment (field-independent basis, Debye-Ang):
   XX=           -104.6105   YY=             60.4522   ZZ=             44.1584
   XY=            -38.8109   XZ=             16.4770   YZ=             21.8749
 Octapole moment (field-independent basis, Debye-Ang**2):
  XXX=            884.0120  YYY=             14.7604  ZZZ=             17.1865  XYY=             95.4464
  XXY=            342.5138  XXZ=           -130.6140  XZZ=              2.7225  YZZ=             -6.2026
  YYZ=              5.8622  XYZ=              4.4455
 Hexadecapole moment (field-independent basis, Debye-Ang**3):
 XXXX=         -22198.6872 YYYY=          -7243.6282 ZZZZ=          -5638.4469 XXXY=          -1354.4697
 XXXZ=            351.1997 YYYX=             57.3664 YYYZ=            194.4456 ZZZX=            176.5167
 ZZZY=            138.3121 XXYY=          -4373.9991 XXZZ=          -3842.4750 YYZZ=          -1954.6514
 XXYZ=            211.0956 YYXZ=            -24.1994 ZZXY=           -166.0448
 N-N= 6.625096806681D+03 E-N=-2.778699245243D+04  KE= 6.117233950330D+03
 D1PCM: PCM CHGder 1st derivatives, ID1Alg=3 FixD1E=F DoIter=F DoCFld=F I1PDM=0.
 Calling FoFJK, ICntrl=      2127 FMM=T ISym2X=0 I1Cent= 0 IOpClX= 0 NMat=1 NMatS=1 NMatT=0.
 -------------------------------------------------------------------
 Center     Atomic                   Forces (Hartrees/Bohr)
 Number     Number              X              Y              Z
 -------------------------------------------------------------------
      1       25           0.000000467   -0.000002836   -0.000018603
      2        6           0.000015166    0.000001090    0.000011008
      3        8          -0.000013220   -0.000003693   -0.000003075
      4        6          -0.000003235    0.000002326   -0.000003648
      5        8           0.000001866   -0.000000333   -0.000000395
      6        6           0.000001465   -0.000003780   -0.000004239
      7        7           0.000009019    0.000003265    0.000003857
      8        6           0.000005241   -0.000052844    0.000009391
      9        6           0.000166075   -0.000169518    0.000008896
     10        6           0.000004558    0.000002210   -0.000001623
     11        1           0.000000398   -0.000000509    0.000003969
     12        1          -0.000164407    0.000180754   -0.000003687
     13        7          -0.000005400    0.000009912    0.000009173
     14        6          -0.000000122    0.000001770   -0.000002441
     15        6          -0.000006321   -0.000008333   -0.000001908
     16        6           0.000002703    0.000004286    0.000003801
     17        6           0.000000465    0.000003490    0.000002087
     18        6          -0.000012947    0.000029229   -0.000006770
     19        1          -0.000001042    0.000002127    0.000001141
     20        1           0.000012490   -0.000008810    0.000011268
     21        7           0.000003315    0.000000307   -0.000006693
     22        6           0.000002581    0.000004167   -0.000003483
     23        6          -0.000000333    0.000002827   -0.000004567
     24        1          -0.000000024   -0.000014904   -0.000002290
     25        6           0.000004842    0.000000438   -0.000006092
     26        1          -0.000001915   -0.000004135    0.000000842
     27        6           0.000000117   -0.000000759   -0.000000753
     28        1           0.000001647    0.000002927   -0.000003180
     29        1           0.000000180    0.000002808   -0.000000872
     30        8          -0.000001034   -0.000003547    0.000000275
     31       16           0.000000206   -0.000003209   -0.000001596
     32       16           0.000000436   -0.000001135    0.000000705
     33        6          -0.000018810    0.000033672   -0.000001145
     34        6          -0.000002089   -0.000000742    0.000003658
     35        6          -0.000001328   -0.000005603    0.000005616
     36        6          -0.000000084   -0.000002737    0.000002123
     37        6          -0.000001446   -0.000003549    0.000001822
     38        6          -0.000002048   -0.000001272    0.000001913
     39        6           0.000000785    0.000004449   -0.000002464
     40        1          -0.000000592   -0.000002528    0.000002226
     41        1          -0.000000917   -0.000003804    0.000003148
     42        1          -0.000000633   -0.000003107    0.000001968
     43        6           0.000002291   -0.000004975    0.000000037
     44        6           0.000000060   -0.000001794   -0.000001409
     45        6          -0.000000004   -0.000001827   -0.000000581
     46        6          -0.000001409   -0.000001358   -0.000001197
     47        6           0.000001613   -0.000000148   -0.000004577
     48        6           0.000000294    0.000001515   -0.000000693
     49        1           0.000000013   -0.000001901   -0.000001489
     50        1           0.000000678   -0.000001414   -0.000003251
     51        1           0.000000842   -0.000000498   -0.000002682
     52        6          -0.000000628    0.000001826   -0.000001562
     53        1           0.000001592    0.000002141   -0.000002627
     54        6           0.000000855    0.000002607   -0.000004040
     55        1          -0.000000625   -0.000000136   -0.000000249
     56        1          -0.000001614    0.000000413    0.000001026
     57        6          -0.000002152    0.000001177    0.000003662
     58        6           0.000005455    0.000003591   -0.000000424
     59        1          -0.000000800    0.000001803    0.000002980
     60        1           0.000000121    0.000002848    0.000000967
     61       35          -0.000002658    0.000005759    0.000006745
 -------------------------------------------------------------------
 Cartesian Forces:  Max     0.000180754 RMS     0.000026079
 NDeriv=    183 NFrqRd=  0 NDerD0=      0 MskFDP=       0 MskDFD=       0 MskDF0=       0
 Re-enter D2Numr:  atom  12 IXYZ=1 step-up   number 1
 Basis read from rwf:  (5D, 7F)
   749 basis functions,  1349 primitive gaussians,   800 cartesian basis functions
   174 alpha electrons      174 beta electrons
       nuclear repulsion energy      6625.1671370897 Hartrees.
 NAtoms=   61 NActive=   61 NUniq=   61 SFac= 1.00D+00 NAtFMM=   60 NAOKFM=T Big=T
 Integral buffers will be    131072 words long.
 Raffenetti 2 integral format.
 Two-electron integral symmetry is turned off.
 Nuclear repulsion after empirical dispersion term =     6625.0976995342 Hartrees.
 ------------------------------------------------------------------------------
 Polarizable Continuum Model (PCM)
 =================================
 Model                : PCM.
 Atomic radii         : UFF (Universal Force Field).
 Polarization charges : Total charges.
 Charge compensation  : None.
 Solution method      : On-the-fly selection.
 Cavity type          : Scaled VdW (van der Waals Surface) (Alpha=1.100).
 Cavity algorithm     : GePol (No added spheres)
                        Default sphere list used, NSphG=   61.
                        Lebedev-Laikov grids with approx.  5.0 points / Ang**2.
                        Smoothing algorithm: York/Karplus (Gamma=1.0000).
                        Polarization charges: spherical gaussians, with
                                              point-specific exponents (IZeta= 3).
                        Self-potential: point-specific (ISelfS= 7).
                        Self-field    : sphere-specific E.n sum rule (ISelfD= 2).
 1st derivatives      : Analytical E(r).r(x)/FMM algorithm (CHGder, D1EAlg=3).
                        Cavity 1st derivative terms included.
 Solvent              : TetraHydroFuran, Eps=   7.425700 Eps(inf)=   1.974025
 ------------------------------------------------------------------------------
 One-electron integrals computed using PRISM.
 NBasis=   749 RedAO= T EigKep=  2.25D-04  NBF=   749
 NBsUse=   749 1.00D-06 EigRej= -1.00D+00 NBFU=   749
 Initial guess from the checkpoint file:  "checkpoint.chk"
 B after Tr=    -0.000005   -0.000000   -0.000000
         Rot=    1.000000   -0.000000   -0.000000    0.000000 Ang=  -0.00 deg.
 Requested convergence on RMS density matrix=1.00D-08 within 128 cycles.
 Requested convergence on MAX density matrix=1.00D-06.
 Requested convergence on             energy=1.00D-06.
 No special actions if energy rises.
 Inv3:  Mode=1 IEnd=    68516523.
 Iteration    1 A*A^-1 deviation from unit magnitude is 3.55D-15 for   4208.
 Iteration    1 A*A^-1 deviation from orthogonality  is 2.31D-15 for   1837    911.
 Iteration    1 A^-1*A deviation from unit magnitude is 3.55D-15 for   4208.
 Iteration    1 A^-1*A deviation from orthogonality  is 6.09D-14 for   4179   4127.
 Error on total polarization charges =  0.02602
 SCF Done:  E(RwB97XD) =  -6140.23096110     A.U. after    6 cycles
            NFock=  6  Conv=0.46D-08     -V/T= 2.0038

 **********************************************************************

            Population analysis using the SCF density.

 **********************************************************************

 Alpha  occ. eigenvalues -- -482.95274-235.72055 -89.04536 -89.04091 -62.53342
 Alpha  occ. eigenvalues --  -56.33893 -56.33892 -56.33891 -27.48762 -23.54725
 Alpha  occ. eigenvalues --  -23.54308 -23.54256 -19.35890 -19.35743 -19.35553
 Alpha  occ. eigenvalues --  -14.51751 -14.51205 -14.46906 -10.43294 -10.43207
 Alpha  occ. eigenvalues --  -10.43151 -10.37940 -10.37528 -10.37465 -10.36705
 Alpha  occ. eigenvalues --  -10.36397 -10.36272 -10.36251 -10.35966 -10.35873
 Alpha  occ. eigenvalues --  -10.35784 -10.35367 -10.35316 -10.34886 -10.34819
 Alpha  occ. eigenvalues --  -10.34717 -10.34665 -10.34122 -10.33604 -10.33514
 Alpha  occ. eigenvalues --  -10.33192 -10.33153 -10.33032 -10.32999 -10.32798
 Alpha  occ. eigenvalues --  -10.32783 -10.32738 -10.32598 -10.32517 -10.32473
 Alpha  occ. eigenvalues --   -8.70110  -8.09548  -8.09237  -6.51786  -6.51784
 Alpha  occ. eigenvalues --   -6.51780  -6.05014  -6.04697  -6.04622  -6.04302
 Alpha  occ. eigenvalues --   -6.03987  -6.03671  -3.28234  -2.62295  -2.62294
 Alpha  occ. eigenvalues --   -2.62290  -2.62289  -2.62288  -2.14136  -2.13168
 Alpha  occ. eigenvalues --   -2.13036  -1.24869  -1.24718  -1.24483  -1.09363
 Alpha  occ. eigenvalues --   -1.08622  -1.02442  -1.01582  -0.99216  -0.98078
 Alpha  occ. eigenvalues --   -0.95323  -0.94128  -0.92543  -0.91840  -0.90419
 Alpha  occ. eigenvalues --   -0.88960  -0.88354  -0.86888  -0.86611  -0.85994
 Alpha  occ. eigenvalues --   -0.83388  -0.79267  -0.76915  -0.76365  -0.76235
 Alpha  occ. eigenvalues --   -0.75576  -0.74968  -0.74415  -0.72791  -0.72229
 Alpha  occ. eigenvalues --   -0.71061  -0.70412  -0.69290  -0.67524  -0.66320
 Alpha  occ. eigenvalues --   -0.66129  -0.65994  -0.65700  -0.64996  -0.62868
 Alpha  occ. eigenvalues --   -0.62405  -0.61612  -0.60464  -0.59532  -0.59414
 Alpha  occ. eigenvalues --   -0.58657  -0.58201  -0.57944  -0.57840  -0.57743
 Alpha  occ. eigenvalues --   -0.57561  -0.57459  -0.57336  -0.56434  -0.56253
 Alpha  occ. eigenvalues --   -0.55610  -0.55176  -0.55019  -0.54838  -0.54368
 Alpha  occ. eigenvalues --   -0.53777  -0.53549  -0.53262  -0.53050  -0.52988
 Alpha  occ. eigenvalues --   -0.52770  -0.52510  -0.51952  -0.51926  -0.50948
 Alpha  occ. eigenvalues --   -0.49988  -0.49573  -0.48878  -0.48693  -0.48410
 Alpha  occ. eigenvalues --   -0.47954  -0.46349  -0.46238  -0.45913  -0.45812
 Alpha  occ. eigenvalues --   -0.44849  -0.44771  -0.44034  -0.43757  -0.42954
 Alpha  occ. eigenvalues --   -0.42359  -0.41312  -0.40788  -0.40347  -0.38925
 Alpha  occ. eigenvalues --   -0.38039  -0.37431  -0.35993  -0.35739  -0.35224
 Alpha  occ. eigenvalues --   -0.34727  -0.34487  -0.34275  -0.33381  -0.31674
 Alpha  occ. eigenvalues --   -0.30543  -0.29606  -0.29565  -0.29543
 Alpha virt. eigenvalues --   -0.02508  -0.00512  -0.00122   0.00236   0.00647
 Alpha virt. eigenvalues --    0.01212   0.01913   0.02828   0.03132   0.03463
 Alpha virt. eigenvalues --    0.03689   0.04094   0.04491   0.05581   0.05819
 Alpha virt. eigenvalues --    0.08208   0.08605   0.08738   0.08856   0.09358
 Alpha virt. eigenvalues --    0.10019   0.10630   0.12159   0.12467   0.13375
 Alpha virt. eigenvalues --    0.13504   0.13894   0.14354   0.14412   0.15199
 Alpha virt. eigenvalues --    0.15844   0.15997   0.16217   0.17149   0.17577
 Alpha virt. eigenvalues --    0.18172   0.18310   0.18731   0.18901   0.19422
 Alpha virt. eigenvalues --    0.19708   0.20135   0.20949   0.21042   0.21420
 Alpha virt. eigenvalues --    0.21650   0.21887   0.22412   0.23095   0.23245
 Alpha virt. eigenvalues --    0.23581   0.23701   0.24057   0.24594   0.25251
 Alpha virt. eigenvalues --    0.25883   0.26614   0.26870   0.27641   0.28156
 Alpha virt. eigenvalues --    0.28423   0.28819   0.29451   0.30431   0.31286
 Alpha virt. eigenvalues --    0.31866   0.32096   0.32295   0.32644   0.32921
 Alpha virt. eigenvalues --    0.33234   0.33413   0.34225   0.34821   0.34831
 Alpha virt. eigenvalues --    0.35322   0.35687   0.36117   0.36476   0.36864
 Alpha virt. eigenvalues --    0.37373   0.37543   0.37880   0.38575   0.38730
 Alpha virt. eigenvalues --    0.39147   0.39445   0.39809   0.40483   0.40928
 Alpha virt. eigenvalues --    0.41549   0.42054   0.42532   0.42693   0.43283
 Alpha virt. eigenvalues --    0.44392   0.44628   0.45784   0.46290   0.46588
 Alpha virt. eigenvalues --    0.47373   0.47499   0.48000   0.48202   0.48686
 Alpha virt. eigenvalues --    0.49251   0.49425   0.49710   0.50804   0.50998
 Alpha virt. eigenvalues --    0.51072   0.51622   0.52107   0.52224   0.52655
 Alpha virt. eigenvalues --    0.53007   0.53431   0.53701   0.53915   0.54336
 Alpha virt. eigenvalues --    0.54650   0.54795   0.55074   0.55417   0.55631
 Alpha virt. eigenvalues --    0.56452   0.56671   0.56970   0.57335   0.57969
 Alpha virt. eigenvalues --    0.58475   0.58775   0.59981   0.60265   0.60496
 Alpha virt. eigenvalues --    0.60709   0.60986   0.61106   0.61984   0.62671
 Alpha virt. eigenvalues --    0.63621   0.63811   0.64164   0.64593   0.64866
 Alpha virt. eigenvalues --    0.65164   0.65317   0.65927   0.66179   0.66456
 Alpha virt. eigenvalues --    0.66593   0.67164   0.67516   0.68571   0.69030
 Alpha virt. eigenvalues --    0.69122   0.69719   0.69869   0.70715   0.70892
 Alpha virt. eigenvalues --    0.71163   0.71430   0.71631   0.71746   0.71883
 Alpha virt. eigenvalues --    0.72190   0.72496   0.72866   0.73033   0.73209
 Alpha virt. eigenvalues --    0.73610   0.73949   0.74119   0.74501   0.75106
 Alpha virt. eigenvalues --    0.75421   0.75620   0.76065   0.76351   0.76811
 Alpha virt. eigenvalues --    0.77311   0.77499   0.77678   0.77773   0.78095
 Alpha virt. eigenvalues --    0.78188   0.79063   0.79462   0.79649   0.80219
 Alpha virt. eigenvalues --    0.80395   0.80656   0.81120   0.81378   0.82178
 Alpha virt. eigenvalues --    0.82229   0.82553   0.82729   0.83166   0.83486
 Alpha virt. eigenvalues --    0.83690   0.83765   0.84155   0.84361   0.84484
 Alpha virt. eigenvalues --    0.84613   0.85256   0.85656   0.85879   0.85972
 Alpha virt. eigenvalues --    0.86057   0.86475   0.87037   0.87340   0.87460
 Alpha virt. eigenvalues --    0.87917   0.88306   0.88744   0.89196   0.89260
 Alpha virt. eigenvalues --    0.89623   0.90062   0.90497   0.90792   0.91022
 Alpha virt. eigenvalues --    0.91247   0.92241   0.92356   0.92596   0.93381
 Alpha virt. eigenvalues --    0.93831   0.94101   0.94703   0.95287   0.95860
 Alpha virt. eigenvalues --    0.96580   0.97206   0.97389   0.98977   0.99719
 Alpha virt. eigenvalues --    0.99996   1.00923   1.01637   1.02536   1.02782
 Alpha virt. eigenvalues --    1.03161   1.04268   1.05067   1.05911   1.06498
 Alpha virt. eigenvalues --    1.07188   1.07704   1.09125   1.09361   1.10365
 Alpha virt. eigenvalues --    1.11020   1.11692   1.11981   1.12274   1.13057
 Alpha virt. eigenvalues --    1.13363   1.13460   1.14562   1.15282   1.15864
 Alpha virt. eigenvalues --    1.16354   1.16548   1.17675   1.19460   1.19892
 Alpha virt. eigenvalues --    1.20159   1.21352   1.22145   1.22668   1.23513
 Alpha virt. eigenvalues --    1.23945   1.24439   1.25048   1.25723   1.26910
 Alpha virt. eigenvalues --    1.27363   1.27960   1.28112   1.28902   1.29008
 Alpha virt. eigenvalues --    1.29510   1.29624   1.29980   1.30281   1.31131
 Alpha virt. eigenvalues --    1.31904   1.32440   1.32802   1.33065   1.34342
 Alpha virt. eigenvalues --    1.34837   1.35095   1.35688   1.35925   1.36018
 Alpha virt. eigenvalues --    1.36434   1.36568   1.37065   1.37270   1.37679
 Alpha virt. eigenvalues --    1.38599   1.39208   1.39459   1.40422   1.41316
 Alpha virt. eigenvalues --    1.42247   1.44172   1.45977   1.47449   1.48014
 Alpha virt. eigenvalues --    1.48785   1.49833   1.51049   1.52913   1.54596
 Alpha virt. eigenvalues --    1.56330   1.56846   1.57911   1.58459   1.60191
 Alpha virt. eigenvalues --    1.60984   1.61519   1.62727   1.63578   1.64718
[...]
 Alpha  occ. eigenvalues --   -2.13036  -1.24869  -1.24718  -1.24483  -1.09363
 Alpha  occ. eigenvalues --   -1.08623  -1.02442  -1.01582  -0.99216  -0.98078
 Alpha  occ. eigenvalues --   -0.95323  -0.94128  -0.92543  -0.91840  -0.90419
 Alpha  occ. eigenvalues --   -0.88960  -0.88354  -0.86888  -0.86611  -0.85994
 Alpha  occ. eigenvalues --   -0.83388  -0.79267  -0.76916  -0.76365  -0.76235
 Alpha  occ. eigenvalues --   -0.75576  -0.74968  -0.74415  -0.72791  -0.72229
 Alpha  occ. eigenvalues --   -0.71061  -0.70412  -0.69290  -0.67524  -0.66320
 Alpha  occ. eigenvalues --   -0.66129  -0.65994  -0.65701  -0.64995  -0.62868
 Alpha  occ. eigenvalues --   -0.62405  -0.61612  -0.60465  -0.59532  -0.59414
 Alpha  occ. eigenvalues --   -0.58657  -0.58201  -0.57945  -0.57841  -0.57743
 Alpha  occ. eigenvalues --   -0.57561  -0.57459  -0.57337  -0.56434  -0.56253
 Alpha  occ. eigenvalues --   -0.55610  -0.55178  -0.55018  -0.54838  -0.54368
 Alpha  occ. eigenvalues --   -0.53777  -0.53549  -0.53262  -0.53050  -0.52988
 Alpha  occ. eigenvalues --   -0.52770  -0.52510  -0.51950  -0.51926  -0.50948
 Alpha  occ. eigenvalues --   -0.49989  -0.49573  -0.48878  -0.48693  -0.48410
 Alpha  occ. eigenvalues --   -0.47954  -0.46349  -0.46238  -0.45914  -0.45812
 Alpha  occ. eigenvalues --   -0.44849  -0.44771  -0.44034  -0.43757  -0.42955
 Alpha  occ. eigenvalues --   -0.42359  -0.41312  -0.40788  -0.40347  -0.38925
 Alpha  occ. eigenvalues --   -0.38040  -0.37431  -0.35993  -0.35739  -0.35224
 Alpha  occ. eigenvalues --   -0.34727  -0.34487  -0.34274  -0.33381  -0.31674
 Alpha  occ. eigenvalues --   -0.30543  -0.29606  -0.29565  -0.29543
 Alpha virt. eigenvalues --   -0.02508  -0.00512  -0.00122   0.00236   0.00647
 Alpha virt. eigenvalues --    0.01211   0.01913   0.02828   0.03132   0.03463
 Alpha virt. eigenvalues --    0.03689   0.04094   0.04491   0.05581   0.05819
 Alpha virt. eigenvalues --    0.08208   0.08605   0.08738   0.08856   0.09358
 Alpha virt. eigenvalues --    0.10019   0.10630   0.12160   0.12467   0.13375
 Alpha virt. eigenvalues --    0.13504   0.13894   0.14355   0.14412   0.15200
 Alpha virt. eigenvalues --    0.15845   0.15998   0.16216   0.17147   0.17577
 Alpha virt. eigenvalues --    0.18172   0.18310   0.18730   0.18902   0.19422
 Alpha virt. eigenvalues --    0.19708   0.20135   0.20949   0.21043   0.21421
 Alpha virt. eigenvalues --    0.21651   0.21886   0.22412   0.23095   0.23245
 Alpha virt. eigenvalues --    0.23581   0.23703   0.24058   0.24594   0.25251
 Alpha virt. eigenvalues --    0.25882   0.26614   0.26870   0.27641   0.28156
 Alpha virt. eigenvalues --    0.28423   0.28819   0.29450   0.30431   0.31286
 Alpha virt. eigenvalues --    0.31867   0.32096   0.32295   0.32645   0.32921
 Alpha virt. eigenvalues --    0.33234   0.33413   0.34225   0.34821   0.34831
 Alpha virt. eigenvalues --    0.35323   0.35687   0.36117   0.36476   0.36864
 Alpha virt. eigenvalues --    0.37373   0.37543   0.37880   0.38575   0.38730
 Alpha virt. eigenvalues --    0.39147   0.39446   0.39808   0.40482   0.40928
 Alpha virt. eigenvalues --    0.41549   0.42054   0.42532   0.42692   0.43283
 Alpha virt. eigenvalues --    0.44392   0.44629   0.45784   0.46290   0.46588
 Alpha virt. eigenvalues --    0.47373   0.47498   0.47999   0.48202   0.48686
 Alpha virt. eigenvalues --    0.49252   0.49425   0.49710   0.50804   0.50998
 Alpha virt. eigenvalues --    0.51072   0.51622   0.52106   0.52224   0.52655
 Alpha virt. eigenvalues --    0.53007   0.53431   0.53700   0.53915   0.54335
 Alpha virt. eigenvalues --    0.54650   0.54795   0.55074   0.55417   0.55631
 Alpha virt. eigenvalues --    0.56452   0.56671   0.56969   0.57336   0.57969
 Alpha virt. eigenvalues --    0.58474   0.58775   0.59982   0.60265   0.60495
 Alpha virt. eigenvalues --    0.60709   0.60985   0.61106   0.61984   0.62670
 Alpha virt. eigenvalues --    0.63621   0.63811   0.64164   0.64593   0.64866
 Alpha virt. eigenvalues --    0.65164   0.65317   0.65927   0.66179   0.66456
 Alpha virt. eigenvalues --    0.66592   0.67163   0.67515   0.68571   0.69032
 Alpha virt. eigenvalues --    0.69123   0.69719   0.69869   0.70715   0.70891
 Alpha virt. eigenvalues --    0.71164   0.71431   0.71634   0.71745   0.71882
 Alpha virt. eigenvalues --    0.72190   0.72496   0.72867   0.73033   0.73210
 Alpha virt. eigenvalues --    0.73613   0.73950   0.74121   0.74501   0.75106
 Alpha virt. eigenvalues --    0.75424   0.75620   0.76066   0.76352   0.76811
 Alpha virt. eigenvalues --    0.77311   0.77499   0.77679   0.77772   0.78095
 Alpha virt. eigenvalues --    0.78189   0.79063   0.79462   0.79649   0.80220
 Alpha virt. eigenvalues --    0.80396   0.80656   0.81120   0.81378   0.82178
 Alpha virt. eigenvalues --    0.82229   0.82553   0.82729   0.83165   0.83486
 Alpha virt. eigenvalues --    0.83690   0.83765   0.84155   0.84361   0.84484
 Alpha virt. eigenvalues --    0.84612   0.85256   0.85656   0.85879   0.85972
 Alpha virt. eigenvalues --    0.86056   0.86475   0.87037   0.87340   0.87460
 Alpha virt. eigenvalues --    0.87917   0.88306   0.88744   0.89196   0.89260
 Alpha virt. eigenvalues --    0.89623   0.90062   0.90497   0.90792   0.91022
 Alpha virt. eigenvalues --    0.91246   0.92241   0.92356   0.92596   0.93381
 Alpha virt. eigenvalues --    0.93831   0.94100   0.94702   0.95287   0.95859
 Alpha virt. eigenvalues --    0.96580   0.97206   0.97389   0.98977   0.99719
 Alpha virt. eigenvalues --    0.99996   1.00923   1.01638   1.02535   1.02782
 Alpha virt. eigenvalues --    1.03161   1.04268   1.05068   1.05910   1.06497
 Alpha virt. eigenvalues --    1.07188   1.07703   1.09126   1.09360   1.10364
 Alpha virt. eigenvalues --    1.11021   1.11692   1.11982   1.12274   1.13056
 Alpha virt. eigenvalues --    1.13363   1.13459   1.14562   1.15282   1.15864
 Alpha virt. eigenvalues --    1.16356   1.16551   1.17676   1.19461   1.19892
 Alpha virt. eigenvalues --    1.20160   1.21352   1.22145   1.22668   1.23512
 Alpha virt. eigenvalues --    1.23944   1.24440   1.25050   1.25724   1.26910
 Alpha virt. eigenvalues --    1.27362   1.27958   1.28111   1.28896   1.29008
 Alpha virt. eigenvalues --    1.29510   1.29621   1.29982   1.30280   1.31133
 Alpha virt. eigenvalues --    1.31905   1.32440   1.32801   1.33066   1.34343
 Alpha virt. eigenvalues --    1.34837   1.35096   1.35687   1.35925   1.36020
 Alpha virt. eigenvalues --    1.36432   1.36570   1.37066   1.37269   1.37679
 Alpha virt. eigenvalues --    1.38601   1.39208   1.39458   1.40422   1.41316
 Alpha virt. eigenvalues --    1.42247   1.44166   1.45975   1.47448   1.48014
 Alpha virt. eigenvalues --    1.48784   1.49833   1.51048   1.52914   1.54597
 Alpha virt. eigenvalues --    1.56330   1.56847   1.57911   1.58459   1.60194
 Alpha virt. eigenvalues --    1.60985   1.61521   1.62726   1.63579   1.64718
 Alpha virt. eigenvalues --    1.64817   1.65979   1.67769   1.68391   1.68787
 Alpha virt. eigenvalues --    1.69302   1.70028   1.70307   1.70859   1.71199
 Alpha virt. eigenvalues --    1.72935   1.73121   1.73305   1.73915   1.74794
 Alpha virt. eigenvalues --    1.75123   1.75663   1.76438   1.76726   1.76738
 Alpha virt. eigenvalues --    1.77163   1.77674   1.78140   1.78374   1.79131
 Alpha virt. eigenvalues --    1.79408   1.79822   1.80176   1.80363   1.80583
 Alpha virt. eigenvalues --    1.81028   1.81455   1.81731   1.82468   1.82610
 Alpha virt. eigenvalues --    1.83683   1.83912   1.84135   1.84654   1.85654
 Alpha virt. eigenvalues --    1.86012   1.86328   1.86723   1.87280   1.87629
 Alpha virt. eigenvalues --    1.88026   1.88588   1.88808   1.89012   1.89531
 Alpha virt. eigenvalues --    1.90076   1.90683   1.91020   1.91812   1.92264
 Alpha virt. eigenvalues --    1.92637   1.93486   1.93761   1.94788   1.95021
 Alpha virt. eigenvalues --    1.96313   1.97783   1.98189   1.99062   1.99678
 Alpha virt. eigenvalues --    2.00180   2.00471   2.01060   2.01632   2.01963
 Alpha virt. eigenvalues --    2.02512   2.02720   2.02900   2.03654   2.04145
 Alpha virt. eigenvalues --    2.04893   2.05295   2.06258   2.06404   2.06606
 Alpha virt. eigenvalues --    2.06731   2.07432   2.08574   2.08905   2.09921
 Alpha virt. eigenvalues --    2.10528   2.10959   2.11848   2.12123   2.12315
 Alpha virt. eigenvalues --    2.14522   2.16470   2.17311   2.17839   2.18354
 Alpha virt. eigenvalues --    2.18565   2.19161   2.19438   2.21124   2.22083
 Alpha virt. eigenvalues --    2.22458   2.23063   2.23473   2.23665   2.24743
 Alpha virt. eigenvalues --    2.26503   2.26832   2.29258   2.29643   2.30469
 Alpha virt. eigenvalues --    2.30919   2.31103   2.31519   2.31809   2.32466
 Alpha virt. eigenvalues --    2.33625   2.34271   2.35114   2.35529   2.36174
 Alpha virt. eigenvalues --    2.36723   2.37119   2.37539   2.38241   2.38471
 Alpha virt. eigenvalues --    2.38557   2.39065   2.39311   2.39552   2.40286
 Alpha virt. eigenvalues --    2.40842   2.41742   2.42260   2.43576   2.45254
 Alpha virt. eigenvalues --    2.46178   2.46946   2.48631   2.49083   2.49375
 Alpha virt. eigenvalues --    2.52477   2.53431   2.54804   2.56185   2.57972
 Alpha virt. eigenvalues --    2.59190   2.59300   2.60147   2.62457   2.64987
 Alpha virt. eigenvalues --    2.66566   2.66799   2.67533   2.68004   2.68223
 Alpha virt. eigenvalues --    2.68339   2.68505   2.68570   2.68771   2.68859
 Alpha virt. eigenvalues --    2.69023   2.69353   2.69486   2.69550   2.70847
 Alpha virt. eigenvalues --    2.72011   2.72584   2.75860   2.76337   2.77829
 Alpha virt. eigenvalues --    2.78591   2.80061   2.80284   2.81003   2.82229
 Alpha virt. eigenvalues --    2.82595   2.82713   2.83709   2.84363   2.85059
 Alpha virt. eigenvalues --    2.86375   2.86876   2.88119   2.88864   2.90965
 Alpha virt. eigenvalues --    2.92469   2.92644   2.95540   2.98099   2.98707
 Alpha virt. eigenvalues --    2.99095   3.01279   3.03005   3.03910   3.04162
 Alpha virt. eigenvalues --    3.04757   3.07159   3.08106   3.08635   3.10227
 Alpha virt. eigenvalues --    3.10518   3.14348   3.15656   3.15915   3.19084
 Alpha virt. eigenvalues --    3.19938   3.21074   3.22029   3.22625   3.22733
 Alpha virt. eigenvalues --    3.23227   3.23873   3.28566   3.28993   3.31229
 Alpha virt. eigenvalues --    3.36831   3.38741   3.39181   3.42249   3.44365
 Alpha virt. eigenvalues --    3.45736   3.49818   3.51895   3.54034   3.57075
 Alpha virt. eigenvalues --    3.58167   3.59552   3.61042   3.61543   3.61809
 Alpha virt. eigenvalues --    3.62138   3.64034   3.69398   3.70298   3.74854
 Alpha virt. eigenvalues --    3.75189   3.76146   3.76750   3.78037   3.78850
 Alpha virt. eigenvalues --    3.80302   3.90267   3.93519   4.02176   4.05725
 Electronic spatial extent (au):  <R**2>=          23960.1741
 Charge=             -0.0000 electrons
 Dipole moment (field-independent basis, Debye):
    X=             28.7832    Y=              8.4244    Z=             -0.3505  Tot=             29.9928
 Quadrupole moment (field-independent basis, Debye-Ang):
   XX=           -404.0793   YY=           -239.0176   ZZ=           -255.3075
   XY=            -38.8080   XZ=             16.4772   YZ=             21.8735
 Traceless Quadrupole moment (field-independent basis, Debye-Ang):
   XX=           -104.6111   YY=             60.4505   ZZ=             44.1606
   XY=            -38.8080   XZ=             16.4772   YZ=             21.8735
 Octapole moment (field-independent basis, Debye-Ang**2):
  XXX=            884.0144  YYY=             14.7204  ZZZ=             17.1956  XYY=             95.4331
  XXY=            342.5160  XXZ=           -130.6118  XZZ=              2.7218  YZZ=             -6.2050
  YYZ=              5.8479  XYZ=              4.4426
 Hexadecapole moment (field-independent basis, Debye-Ang**3):
 XXXX=         -22198.7424 YYYY=          -7243.6547 ZZZZ=          -5638.4077 XXXY=          -1354.4863
 XXXZ=            351.2025 YYYX=             57.4342 YYYZ=            194.3677 ZZZX=            176.5147
 ZZZY=            138.3251 XXYY=          -4373.9895 XXZZ=          -3842.4760 YYZZ=          -1954.6795
 XXYZ=            211.1022 YYXZ=            -24.1864 ZZXY=           -166.0456
 N-N= 6.625102294895D+03 E-N=-2.778700415244D+04  KE= 6.117235053683D+03
 D1PCM: PCM CHGder 1st derivatives, ID1Alg=3 FixD1E=F DoIter=F DoCFld=F I1PDM=0.
 Calling FoFJK, ICntrl=      2127 FMM=T ISym2X=0 I1Cent= 0 IOpClX= 0 NMat=1 NMatS=1 NMatT=0.
 -------------------------------------------------------------------
 Center     Atomic                   Forces (Hartrees/Bohr)
 Number     Number              X              Y              Z
 -------------------------------------------------------------------
      1       25           0.000000760   -0.000002809   -0.000019177
      2        6           0.000015413    0.000000574    0.000011096
      3        8          -0.000013347   -0.000003335   -0.000003065
      4        6          -0.000002993    0.000002312   -0.000003338
      5        8           0.000001660   -0.000000417   -0.000000568
      6        6           0.000001216   -0.000003820   -0.000003721
      7        7           0.000007512    0.000002421    0.000002851
      8        6           0.000000856   -0.000000959    0.000002727
      9        6          -0.000002631   -0.000000491   -0.000005753
     10        6           0.000001327   -0.000002891    0.000005238
     11        1           0.000001982   -0.000001701    0.000001469
     12        1          -0.000000320   -0.000000363    0.000004364
     13        7          -0.000005280    0.000009735    0.000009484
     14        6          -0.000000356    0.000001767   -0.000002599
     15        6          -0.000006460   -0.000008239   -0.000001998
     16        6           0.000002722    0.000004242    0.000003639
     17        6           0.000000486    0.000003668    0.000002159
     18        6          -0.000012871    0.000029279   -0.000006626
     19        1          -0.000000779    0.000001663    0.000001111
     20        1           0.000012474   -0.000008696    0.000011318
     21        7           0.000000304    0.000011479   -0.000014403
     22        6           0.000079963   -0.000223618   -0.000253729
     23        6          -0.000000984    0.000006414   -0.000011392
     24        1          -0.000083378    0.000203361    0.000268473
     25        6          -0.000003920    0.000002881    0.000000762
     26        1          -0.000001829   -0.000001772    0.000000051
     27        6           0.000008565   -0.000004230   -0.000011618
     28        1           0.000001750   -0.000002128    0.000000288
     29        1           0.000000187    0.000002796   -0.000000888
     30        8          -0.000000867   -0.000003489   -0.000000031
     31       16           0.000000325   -0.000003255   -0.000001383
     32       16           0.000000439   -0.000001091    0.000000732
     33        6          -0.000000647    0.000000008    0.000004513
     34        6          -0.000000050   -0.000002034    0.000001343
     35        6          -0.000000793   -0.000005633    0.000005619
     36        6          -0.000000675   -0.000002625    0.000002007
     37        6          -0.000001177   -0.000003245    0.000002143
     38        6          -0.000001803   -0.000001644    0.000001623
     39        6           0.000000243    0.000004240   -0.000002662
     40        1          -0.000000747   -0.000002719    0.000002604
     41        1          -0.000000880   -0.000003845    0.000003160
     42        1          -0.000000622   -0.000003105    0.000001992
     43        6           0.000002255   -0.000004681   -0.000000038
     44        6           0.000000088   -0.000001856   -0.000001415
     45        6           0.000000011   -0.000001849   -0.000000588
     46        6          -0.000001442   -0.000001282   -0.000001208
     47        6           0.000001650   -0.000000241   -0.000004455
     48        6           0.000000115    0.000001370   -0.000000899
     49        1           0.000000030   -0.000001906   -0.000001488
     50        1           0.000000693   -0.000001400   -0.000003259
     51        1           0.000000801   -0.000000465   -0.000002630
     52        6           0.000001699    0.000012706   -0.000006039
     53        1           0.000000868   -0.000003340    0.000001152
     54        6           0.000000073    0.000002460   -0.000002795
     55        1          -0.000000601   -0.000001815    0.000000692
     56        1          -0.000000712   -0.000001474    0.000001091
     57        6          -0.000002204    0.000001163    0.000003656
     58        6           0.000005459    0.000003603   -0.000000378
     59        1          -0.000000766    0.000001828    0.000002976
     60        1           0.000000116    0.000002870    0.000000957
     61       35          -0.000002907    0.000005621    0.000006854
 -------------------------------------------------------------------
 Cartesian Forces:  Max     0.000268473 RMS     0.000036641
 NDeriv=    183 NFrqRd=  0 NDerD0=      0 MskFDP=       0 MskDFD=       0 MskDF0=       0
 Re-enter D2Numr:  atom  24 IXYZ=2 step-down number 1
 Basis read from rwf:  (5D, 7F)
   749 basis functions,  1349 primitive gaussians,   800 cartesian basis functions
   174 alpha electrons      174 beta electrons
       nuclear repulsion energy      6625.1609959499 Hartrees.
 NAtoms=   61 NActive=   61 NUniq=   61 SFac= 1.00D+00 NAtFMM=   60 NAOKFM=T Big=T
 Integral buffers will be    131072 words long.
 Raffenetti 2 integral format.
 Two-electron integral symmetry is turned off.
 Nuclear repulsion after empirical dispersion term =     6625.0915585382 Hartrees.
 ------------------------------------------------------------------------------
 Polarizable Continuum Model (PCM)
 =================================
 Model                : PCM.
 Atomic radii         : UFF (Universal Force Field).
 Polarization charges : Total charges.
 Charge compensation  : None.
 Solution method      : On-the-fly selection.
 Cavity type          : Scaled VdW (van der Waals Surface) (Alpha=1.100).
 Cavity algorithm     : GePol (No added spheres)
                        Default sphere list used, NSphG=   61.
                        Lebedev-Laikov grids with approx.  5.0 points / Ang**2.
                        Smoothing algorithm: York/Karplus (Gamma=1.0000).
                        Polarization charges: spherical gaussians, with
                                              point-specific exponents (IZeta= 3).
                        Self-potential: point-specific (ISelfS= 7).
                        Self-field    : sphere-specific E.n sum rule (ISelfD= 2).
 1st derivatives      : Analytical E(r).r(x)/FMM algorithm (CHGder, D1EAlg=3).
                        Cavity 1st derivative terms included.
 Solvent              : TetraHydroFuran, Eps=   7.425700 Eps(inf)=   1.974025
 ------------------------------------------------------------------------------
 One-electron integrals computed using PRISM.
 NBasis=   749 RedAO= T EigKep=  2.25D-04  NBF=   749
 NBsUse=   749 1.00D-06 EigRej= -1.00D+00 NBFU=   749
 Initial guess from the checkpoint file:  "checkpoint.chk"
 B after Tr=     0.000000   -0.000000    0.000005
         Rot=    1.000000   -0.000001   -0.000000    0.000000 Ang=  -0.00 deg.
 Requested convergence on RMS density matrix=1.00D-08 within 128 cycles.
 Requested convergence on MAX density matrix=1.00D-06.
 Requested convergence on             energy=1.00D-06.
 No special actions if energy rises.
 Inv3:  Mode=1 IEnd=    68516523.
 Iteration    1 A*A^-1 deviation from unit magnitude is 3.33D-15 for    926.
 Iteration    1 A*A^-1 deviation from orthogonality  is 2.44D-15 for   3404   2053.
 Iteration    1 A^-1*A deviation from unit magnitude is 3.55D-15 for   1662.
 Iteration    1 A^-1*A deviation from orthogonality  is 6.08D-14 for   4177   4127.
