 Entering Gaussian System, Link 0=g16
 Initial command:
 /home1/apps/gaussian/16rA.03/g16/l1.exe "/tmp/Gau-214051.inp" -scrdir="/tmp/"
 Entering Link 1 = /home1/apps/gaussian/16rA.03/g16/l1.exe PID=    214053.
  
 Copyright (c) 1988,1990,1992,1993,1995,1998,2003,2009,2016,
            Gaussian, Inc.  All Rights Reserved.
  
 This is part of the Gaussian(R) 16 program.  It is based on
 the Gaussian(R) 09 system (copyright 2009, Gaussian, Inc.),
 the Gaussian(R) 03 system (copyright 2003, Gaussian, Inc.),
 the Gaussian(R) 98 system (copyright 1998, Gaussian, Inc.),
 the Gaussian(R) 94 system (copyright 1995, Gaussian, Inc.),
 the Gaussian 92(TM) system (copyright 1992, Gaussian, Inc.),
 the Gaussian 90(TM) system (copyright 1990, Gaussian, Inc.),
 the Gaussian 88(TM) system (copyright 1988, Gaussian, Inc.),
 the Gaussian 86(TM) system (copyright 1986, Carnegie Mellon
 University), and the Gaussian 82(TM) system (copyright 1983,
 Carnegie Mellon University). Gaussian is a federally registered
 trademark of Gaussian, Inc.
  
 This software contains proprietary and confidential information,
 including trade secrets, belonging to Gaussian, Inc.
  
 This software is provided under written license and may be
 used, copied, transmitted, or stored only in accord with that
 written license.
  
 The following legend is applicable only to US Government
 contracts under FAR:
  
                    RESTRICTED RIGHTS LEGEND
  
 Use, reproduction and disclosure by the US Government is
 subject to restrictions as set forth in subparagraphs (a)
 and (c) of the Commercial Computer Software - Restricted
 Rights clause in FAR 52.227-19.
  
 Gaussian, Inc.
 340 Quinnipiac St., Bldg. 40, Wallingford CT 06492
  
  
 ---------------------------------------------------------------
 Warning -- This program may not be used in any manner that
 competes with the business of Gaussian, Inc. or will provide
 assistance to any competitor of Gaussian, Inc.  The licensee
 of this program is prohibited from giving any competitor of
 Gaussian, Inc. access to this program.  By using this program,
 the user acknowledges that Gaussian, Inc. is engaged in the
 business of creating and licensing software in the field of
 computational chemistry and represents and warrants to the
 licensee that it is not a competitor of Gaussian, Inc. and that
 it will not use this program in any manner prohibited above.
 ---------------------------------------------------------------
  

 Cite this work as:
 Gaussian 16, Revision A.03,
 M. J. Frisch, G. W. Trucks, H. B. Schlegel, G. E. Scuseria, 
 M. A. Robb, J. R. Cheeseman, G. Scalmani, V. Barone, 
 G. A. Petersson, H. Nakatsuji, X. Li, M. Caricato, A. V. Marenich, 
 J. Bloino, B. G. Janesko, R. Gomperts, B. Mennucci, H. P. Hratchian, 
 J. V. Ortiz, A. F. Izmaylov, J. L. Sonnenberg, D. Williams-Young, 
 F. Ding, F. Lipparini, F. Egidi, J. Goings, B. Peng, A. Petrone, 
 T. Henderson, D. Ranasinghe, V. G. Zakrzewski, J. Gao, N. Rega, 
 G. Zheng, W. Liang, M. Hada, M. Ehara, K. Toyota, R. Fukuda, 
 J. Hasegawa, M. Ishida, T. Nakajima, Y. Honda, O. Kitao, H. Nakai, 
 T. Vreven, K. Throssell, J. A. Montgomery, Jr., J. E. Peralta, 
 F. Ogliaro, M. J. Bearpark, J. J. Heyd, E. N. Brothers, K. N. Kudin, 
 V. N. Staroverov, T. A. Keith, R. Kobayashi, J. Normand, 
 K. Raghavachari, A. P. Rendell, J. C. Burant, S. S. Iyengar, 
 J. Tomasi, M. Cossi, J. M. Millam, M. Klene, C. Adamo, R. Cammi, 
 J. W. Ochterski, R. L. Martin, K. Morokuma, O. Farkas, 
 J. B. Foresman, and D. J. Fox, Gaussian, Inc., Wallingford CT, 2016.
 
 ******************************************
 Gaussian 16:  ES64L-G16RevA.03 25-Dec-2016
                17-Feb-2023 
 ******************************************
 %Chk=checkpoint.chk
 %NProcShared=12
 Will use up to   12 processors via shared memory.
 -----------------------------------------------------
 #wB97XD Gen Opt=(QST3) SCRF=(Solvent=TetraHydroFuran)
 -----------------------------------------------------
 1/5=1,18=20,26=3,27=203,38=1/1,3;
 2/9=110,12=2,17=6,18=5,40=1/2;
 3/5=7,11=2,25=1,30=1,70=2201,71=1,72=20,74=-58/1,2,3;
 4//1;
 5/5=2,38=5,53=20/2;
 6/7=2,8=2,9=2,10=2,28=1/1;
 7//1,2,3,16;
 1/5=1,18=20,26=3,27=203/3(2);
 2/9=110/2;
 99//99;
 2/9=110/2;
 3/5=7,6=1,11=2,25=1,30=1,70=2205,71=1,72=20,74=-58,82=7/1,2,3;
 4/5=5,16=3,69=1/1;
 5/5=2,38=5,53=20/2;
 7//1,2,3,16;
 1/5=1,18=20,26=3,27=203/3(-5);
 2/9=110/2;
 6/7=2,8=2,9=2,10=2,19=2,28=1/1;
 99/9=1/99;
 ------------------------------------
 Anthracene Transition State Reactant
 ------------------------------------
 Symbolic Z-matrix:
 Charge =  0 Multiplicity = 1
 Mn                   -1.0194   -0.13282  -1.30041 
 C                    -1.95084   1.09527  -2.29845 
 O                    -2.50101   1.87539  -2.92239 
 C                    -1.94096  -1.55093  -2.01671 
 O                    -2.47772  -2.45176  -2.46467 
 C                     0.20025  -0.27236  -2.6431 
 N                     0.04927  -1.53221  -0.03083 
 C                     0.07866  -3.04556   1.8282 
 C                     1.46702  -3.1228    1.77993 
 C                     1.37634  -1.67638  -0.11513 
 H                    -0.49205  -3.5931    2.57846 
 H                     2.01871  -3.71611   2.51212 
 N                    -2.37065   0.02942   0.19031 
 C                    -3.16697   0.13023   1.0198 
 C                    -4.10539   0.2658    2.09209 
 C                    -3.6202    0.43566   3.39952 
 C                    -4.52704   0.57079   4.44399 
 C                    -5.48203   0.23058   1.82486 
 H                    -2.54534   0.46071   3.58681 
 H                    -5.82775   0.09615   0.79488 
 N                     0.05018   1.50245  -0.35369 
 C                     0.08073   3.37421   1.14383 
 C                     1.47006   3.42805   1.09346 
 H                    -0.49002   4.07266   1.75603 
 C                    -0.58809  -2.23239   0.92237 
 H                    -1.67251  -2.14107   0.96102 
 C                    -0.58735   2.39419   0.42298 
 H                    -1.67305   2.32336   0.46813 
 H                    -4.16287   0.70328   5.46409 
 O                     0.94147  -0.36186  -3.51126 
 C                     3.71034   0.05692   0.59661 
 C                     6.44285   0.00195   0.07986 
 C                     2.14993  -2.41932   0.78562 
 C                     3.63318  -2.42875   0.67238 
 C                     4.33237  -3.60918   0.65808 
 C                     5.74721  -3.62943   0.48325 
 C                     6.44286  -2.47015   0.28898 
 C                     5.76733  -1.20725   0.29051 
 C                     4.35206  -1.18133   0.52939 
 H                     3.79554  -4.55679   0.74485 
 H                     6.26618  -4.58974   0.47691 
 H                     7.52231  -2.48926   0.12265 
 C                     4.35394   1.25516   0.28141 
 C                     5.76945   1.23001   0.04342 
 C                     6.44775   2.46555  -0.21061 
 C                     5.75436   3.64152  -0.25402 
 C                     4.33929   3.65908  -0.08147 
 C                     3.63726   2.50702   0.16895 
 H                     7.52743   2.44868  -0.37582 
 H                     6.27529   4.58008  -0.45221 
 H                     3.80437   4.6056   -0.18931 
 C                     2.15352   2.52607   0.2752 
 H                     2.02229   4.15802   1.68899 
 C                     1.37923   1.61496  -0.45427 
 H                     1.87683   0.94259  -1.1522 
 H                     1.87309  -1.17143  -0.94303 
 C                    -5.89955   0.53687   4.18594 
 C                    -6.37363   0.36773   2.88435 
 H                    -7.44706   0.34214   2.68994 
 H                    -6.60706   0.64379   5.01079 
 Br                   -5.87537  -0.28615  -1.89241 
 H                     7.52454  -0.01473  -0.07653 
 H                     2.66679   0.08836   0.89635 
 
 Add virtual bond connecting atoms Br61       and H20        Dist= 5.13D+00.
 -----------------------------------
 Anthracene Transition State Product
 -----------------------------------
 Symbolic Z-matrix:
 Charge =  0 Multiplicity = 1
 Mn                   -1.44286   0.16026  -2.01412 
 C                    -2.20443   1.54882  -2.90891 
 O                    -2.68366   2.42731  -3.46349 
 C                    -2.21304  -1.07612  -3.10367 
 O                    -2.69804  -1.85971  -3.78172 
 C                    -0.01408   0.23546  -3.09485 
 N                    -0.60049  -1.44099  -0.81185 
 C                    -0.82342  -3.27125   0.71581 
 C                     0.55737  -3.36677   0.85296 
 C                     0.7252   -1.5913   -0.72767 
 H                    -1.48955  -3.94449   1.25661 
 H                     1.00241  -4.09964   1.52935 
 N                     0.0775   -0.17244   2.4041 
 C                    -1.05369  -0.19765   2.64732 
 C                    -2.45976  -0.23136   2.94445 
 C                    -3.12645  -1.4621    3.01383 
 C                    -4.49389  -1.48788   3.26678 
 C                    -3.15853   0.96659   3.1448 
 H                    -2.5722   -2.38909   2.86463 
 H                    -2.62937   1.91849   3.09601 
 N                    -0.59083   1.56154  -0.58857 
 C                    -0.80429   3.1413    1.19825 
 C                     0.5769    3.20654   1.34817 
 H                    -1.46646   3.7285    1.83564 
 C                    -1.3638   -2.28301  -0.09733 
 H                    -2.44255  -2.14076  -0.17604 
 C                    -1.34964   2.291     0.24463 
 H                    -2.42913   2.16919   0.14486 
 H                    -5.01736  -2.44419   3.31559 
 O                     0.86165   0.2873   -3.83871 
 C                     2.91235  -0.04746   0.58557 
 C                     5.69235  -0.04273   0.41158 
 C                     1.36924  -2.49754   0.12252 
 C                     2.85402  -2.5063    0.21569 
 C                     3.56205  -3.67493   0.08887 
 C                     4.98786  -3.68132   0.09599 
 C                     5.69088  -2.51399   0.19056 
 C                     5.00769  -1.26191   0.32192 
 C                     3.57322  -1.26107   0.38259 
 H                     3.02896  -4.61681  -0.06081 
 H                     5.51371  -4.63251  -0.00729 
 H                     6.783    -2.51728   0.16154 
 C                     3.58071   1.17889   0.56648 
 C                     5.01522   1.18024   0.5065 
 C                     5.70587   2.43375   0.56536 
 C                     5.00976   3.60611   0.64834 
 C                     3.58394   3.60941   0.64 
 C                     2.86897   2.43926   0.58848 
 H                     6.79801   2.43509   0.53708 
 H                     5.54131   4.55882   0.69009 
 H                     3.05653   4.56629   0.63458 
 C                     1.38429   2.45343   0.49431 
 H                     1.02578   3.82526   2.12808 
 C                     0.73572   1.68987  -0.48314 
 H                     1.34033   1.15471  -1.214 
 H                     1.33286  -0.9558   -1.37019 
 C                    -5.19354  -0.29487   3.45284 
 C                    -4.52569   0.92909   3.39758 
 H                    -5.07398   1.86057   3.54798 
 H                    -6.26798  -0.31941   3.64516 
 Br                   -3.72263   0.07153  -0.71897 
 H                     1.84487  -0.05936   0.78995 
 H                     6.78538  -0.04496   0.39399 
 
 Add virtual bond connecting atoms N7         and Mn1        Dist= 4.11D+00.
 Add virtual bond connecting atoms N21        and Mn1        Dist= 4.11D+00.
 Add virtual bond connecting atoms H11        and H19        Dist= 4.70D+00.
 Add virtual bond connecting atoms H24        and H20        Dist= 4.71D+00.
 Add virtual bond connecting atoms H62        and N13        Dist= 4.53D+00.
 -----------------------------------------
 Anthracene Transition State Initial Guess
 -----------------------------------------
 Symbolic Z-matrix:
 Charge =  0 Multiplicity = 1
 Mn                   -0.95872  -0.18108  -2.24597 
 C                    -1.66886   1.01437  -3.44225 
 O                    -2.00728   1.76968  -4.23198 
 C                    -1.68193  -1.59093  -3.16638 
 O                    -2.01527  -2.50124  -3.77521 
 C                     0.45669  -0.30433  -3.30108 
 N                    -0.2273   -1.60868  -0.95765 
 C                    -0.66863  -3.36203   0.61691 
 C                     0.65896  -3.35025   1.04054 
 C                     1.06365  -1.68695  -0.61972 
 H                    -1.39915  -4.04142   1.06463 
 H                     0.98896  -4.00525   1.85129 
 N                    -1.95584   0.05861   0.25113 
 C                    -2.31778   0.18441   1.3446 
 C                    -2.8128    0.34272   2.69124 
 C                    -1.97002   0.79702   3.70913 
 C                    -2.47414   0.96009   5.00187 
 C                    -4.14999   0.04239   2.9668 
 H                    -0.93257   1.02695   3.48095 
 H                    -4.78972  -0.31143   2.15709 
 N                    -0.19772   1.43529  -1.2331 
 C                    -0.63751   3.39423   0.07626 
 C                     0.69424   3.45694   0.47966 
 H                    -1.37046   4.11709   0.43669 
 C                    -1.07547  -2.46962  -0.3634 
 H                    -2.12356  -2.41937  -0.67211 
 C                    -1.04632   2.36506  -0.76061 
 H                    -2.09663   2.25257  -1.04282 
 H                    -1.82502   1.31937   5.80065 
 O                     1.33789  -0.39886  -4.03961 
 C                     3.04011   0.06033   0.76204 
 C                     5.80489   0.07265   1.09887 
 C                     1.56629  -2.49283   0.41018 
 C                     3.0114   -2.43818   0.77656 
 C                     3.72406  -3.59663   0.95981 
 C                     5.12608  -3.57852   1.23532 
 C                     5.81196  -2.39892   1.27873 
 C                     5.12617  -1.15378   1.08518 
 C                     3.70248  -1.16531   0.88272 
 H                     3.21989  -4.56168   0.85487 
 H                     5.65057  -4.52711   1.37744 
 H                     6.89294  -2.38265   1.45159 
 C                     3.72123   1.27879   0.66135 
 C                     5.14451   1.286     0.86527 
 C                     5.8467    2.538     0.83676 
 C                     5.17563   3.69959   0.58821 
 C                     3.77292   3.68705   0.31559 
 C                     3.04587   2.52184   0.33494 
 H                     6.92783   2.54025   1.01042 
 H                     5.71318   4.65229   0.56393 
 H                     3.28175   4.62534   0.04449 
 C                     1.6004    2.52484  -0.03112 
 H                     1.02591   4.21874   1.19181 
 C                     1.09432   1.57447  -0.92843 
 H                     1.78484   0.88754  -1.41522 
 H                     1.75657  -1.07269  -1.19571 
 C                    -3.80402   0.66635   5.27872 
 C                    -4.63951   0.20463   4.26516 
 H                    -5.67868  -0.02571   4.4891 
 H                    -4.19512   0.79725   6.29612 
 Br                   -3.9896   -0.11858  -2.07482 
 H                     6.88518   0.08177   1.2806 
 H                     1.95191   0.06696   0.73077 
 

 GradGradGradGradGradGradGradGradGradGradGradGradGradGradGradGradGradGrad
 Berny optimization.
 Initialization pass.
                           ----------------------------
                           !    Initial Parameters    !
                           ! (Angstroms and Degrees)  !
 --------------------------                            --------------------------
 ! Name  Definition         TS        Reactant Product Derivative Info.         !
 --------------------------------------------------------------------------------
 ! R1    R(1,2)             1.8343    1.8363    1.819  estimate D2E/DX2         !
 ! R2    R(1,4)             1.8324    1.8367    1.819  estimate D2E/DX2         !
 ! R3    R(1,6)             1.7697    1.8193    1.7931 estimate D2E/DX2         !
 ! R4    R(1,7)             2.0574    2.1708    2.1723 estimate D2E/DX2         !
 ! R5    R(1,13)            2.6995    2.0185    4.6843 estimate D2E/DX2         !
 ! R6    R(1,21)            2.0537    2.1713    2.173  estimate D2E/DX2         !
 ! R7    R(1,61)            3.0364    4.8943    2.6235 estimate D2E/DX2         !
 ! R8    R(2,3)             1.144     1.1404    1.1441 estimate D2E/DX2         !
 ! R9    R(4,5)             1.1448    1.1403    1.1441 estimate D2E/DX2         !
 ! R10   R(6,30)            1.1536    1.145     1.1502 estimate D2E/DX2         !
 ! R11   R(7,10)            1.3367    1.3375    1.3368 estimate D2E/DX2         !
 ! R12   R(7,25)            1.3468    1.3435    1.3425 estimate D2E/DX2         !
 ! R13   R(8,9)             1.3936    1.3913    1.3909 estimate D2E/DX2         !
 ! R14   R(8,11)            1.0935    1.0901    1.0906 estimate D2E/DX2         !
 ! R15   R(8,25)            1.3867    1.3879    1.3892 estimate D2E/DX2         !
 ! R16   R(9,12)            1.0933    1.092     1.0921 estimate D2E/DX2         !
 ! R17   R(9,33)            1.3985    1.3964    1.3958 estimate D2E/DX2         !
 ! R18   R(10,33)           1.401     1.4006    1.3996 estimate D2E/DX2         !
 ! R19   R(10,56)           1.0905    1.0896    1.089  estimate D2E/DX2         !
 ! R20   R(11,19)           5.6342    4.6547    2.4854 estimate D2E/DX2         !
 ! R21   R(13,14)           1.1587    1.1543    1.1573 estimate D2E/DX2         !
 ! R22   R(13,62)           8.9008    9.8989    2.3962 estimate D2E/DX2         !
 ! R23   R(14,15)           1.4435    1.4314    1.4375 estimate D2E/DX2         !
 ! R24   R(15,16)           1.3974    1.4049    1.4014 estimate D2E/DX2         !
 ! R25   R(15,18)           1.3979    1.4028    1.4013 estimate D2E/DX2         !
 ! R26   R(16,17)           1.3971    1.3898    1.3909 estimate D2E/DX2         !
 ! R27   R(16,19)           1.0868    1.0913    1.0903 estimate D2E/DX2         !
 ! R28   R(17,29)           1.0902    1.0912    1.0913 estimate D2E/DX2         !
 ! R29   R(17,57)           1.3898    1.397     1.3955 estimate D2E/DX2         !
 ! R30   R(18,20)           1.0909    1.0947    1.0902 estimate D2E/DX2         !
 ! R31   R(18,58)           1.397     1.3915    1.3908 estimate D2E/DX2         !
 ! R32   R(20,24)           5.8535    6.7252    2.4934 estimate D2E/DX2         !
 ! R33   R(20,61)           4.3112    2.7148    4.3773 estimate D2E/DX2         !
 ! R34   R(21,27)           1.3446    1.3435    1.3424 estimate D2E/DX2         !
 ! R35   R(21,54)           1.3348    1.3376    1.3369 estimate D2E/DX2         !
 ! R36   R(22,23)           1.3929    1.3913    1.3908 estimate D2E/DX2         !
 ! R37   R(22,24)           1.0907    1.0901    1.0907 estimate D2E/DX2         !
 ! R38   R(22,27)           1.388     1.3879    1.3892 estimate D2E/DX2         !
 ! R39   R(23,52)           1.3967    1.3965    1.3958 estimate D2E/DX2         !
 ! R40   R(23,53)           1.0943    1.092     1.092  estimate D2E/DX2         !
 ! R41   R(25,26)           1.0938    1.0889    1.0909 estimate D2E/DX2         !
 ! R42   R(27,28)           1.0934    1.0889    1.0909 estimate D2E/DX2         !
 ! R43   R(31,39)           1.3984    1.3963    1.3967 estimate D2E/DX2         !
 ! R44   R(31,43)           1.3995    1.3962    1.3968 estimate D2E/DX2         !
 ! R45   R(31,62)           3.8799    3.8738    1.0869 estimate D2E/DX2         !
 ! R46   R(31,63)           1.0887    1.0862    3.8778 estimate D2E/DX2         !
 ! R47   R(32,38)           1.4018    1.401     1.4011 estimate D2E/DX2         !
 ! R48   R(32,44)           1.401     1.401     1.4011 estimate D2E/DX2         !
 ! R49   R(32,62)           1.0955    1.0931    3.8661 estimate D2E/DX2         !
 ! R50   R(32,63)           3.8705    3.8643    1.0932 estimate D2E/DX2         !
 ! R51   R(33,34)           1.4918    1.4876    1.4877 estimate D2E/DX2         !
 ! R52   R(34,35)           1.3724    1.372     1.3723 estimate D2E/DX2         !
 ! R53   R(34,39)           1.4522    1.4468    1.4477 estimate D2E/DX2         !
 ! R54   R(35,36)           1.429     1.4257    1.4258 estimate D2E/DX2         !
 ! R55   R(35,40)           1.0939    1.0926    1.0926 estimate D2E/DX2         !
 ! R56   R(36,37)           1.3652    1.3659    1.366  estimate D2E/DX2         !
 ! R57   R(36,41)           1.0932    1.0916    1.0918 estimate D2E/DX2         !
 ! R58   R(37,38)           1.4346    1.4322    1.4324 estimate D2E/DX2         !
 ! R59   R(37,42)           1.0948    1.0924    1.0925 estimate D2E/DX2         !
 ! R60   R(38,39)           1.4381    1.4355    1.4358 estimate D2E/DX2         !
 ! R61   R(43,44)           1.4378    1.4356    1.4358 estimate D2E/DX2         !
 ! R62   R(43,48)           1.4518    1.4469    1.4476 estimate D2E/DX2         !
 ! R63   R(44,45)           1.4358    1.4322    1.4324 estimate D2E/DX2         !
 ! R64   R(45,46)           1.3643    1.3659    1.366  estimate D2E/DX2         !
 ! R65   R(45,49)           1.095     1.0924    1.0925 estimate D2E/DX2         !
 ! R66   R(46,47)           1.429     1.4257    1.4258 estimate D2E/DX2         !
 ! R67   R(46,50)           1.0942    1.0916    1.0918 estimate D2E/DX2         !
 ! R68   R(47,48)           1.3736    1.3722    1.3723 estimate D2E/DX2         !
 ! R69   R(47,51)           1.0932    1.0926    1.0926 estimate D2E/DX2         !
 ! R70   R(48,52)           1.4911    1.4877    1.4877 estimate D2E/DX2         !
 ! R71   R(52,54)           1.4016    1.4006    1.3997 estimate D2E/DX2         !
 ! R72   R(54,55)           1.0889    1.0894    1.0891 estimate D2E/DX2         !
 ! R73   R(57,58)           1.3923    1.3955    1.3954 estimate D2E/DX2         !
 ! R74   R(57,60)           1.0978    1.092     1.0918 estimate D2E/DX2         !
 ! R75   R(58,59)           1.0877    1.0912    1.0913 estimate D2E/DX2         !
 ! A1    A(2,1,4)          91.2062   92.8602   92.6906 estimate D2E/DX2         !
 ! A2    A(2,1,6)          88.0628   89.4398   90.2928 estimate D2E/DX2         !
 ! A3    L(2,1,7,4,-1)    176.6732  181.5632  182.3854 estimate D2E/DX2         !
 ! A4    L(2,1,7,4,-2)    180.5262  182.4131  183.4865 estimate D2E/DX2         !
 ! A5    A(2,1,13)        113.7294   90.4629  130.8496 estimate D2E/DX2         !
 ! A6    A(2,1,21)         87.2581   89.035    89.6911 estimate D2E/DX2         !
 ! A7    A(2,1,61)         68.7086   56.7659   84.5395 estimate D2E/DX2         !
 ! A8    A(4,1,6)          87.8569   89.3883   90.279  estimate D2E/DX2         !
 ! A9    A(4,1,7)          85.467    88.703    89.6949 estimate D2E/DX2         !
 ! A10   A(4,1,13)        112.7779   90.8132  130.8505 estimate D2E/DX2         !
 ! A11   L(4,1,21,2,-1)   178.4643  181.8953  182.3816 estimate D2E/DX2         !
 ! A12   L(4,1,21,2,-2)   179.0783  177.8035  176.5025 estimate D2E/DX2         !
 ! A13   A(4,1,61)         69.5243   55.3068   84.5361 estimate D2E/DX2         !
 ! A14   A(6,1,7)          92.3313   92.9897   93.1816 estimate D2E/DX2         !
 ! A15   L(6,1,13,2,-1)   201.7921  179.9027  221.1424 estimate D2E/DX2         !
 ! A16   L(6,1,13,2,-2)   203.4257  180.197   245.2912 estimate D2E/DX2         !
 ! A17   A(6,1,21)         93.0092   92.827    93.2059 estimate D2E/DX2         !
 ! A18   L(6,1,61,2,-1)   156.7713  146.2057  174.8323 estimate D2E/DX2         !
 ! A19   L(6,1,61,2,-2)   155.2499  133.7926  174.5395 estimate D2E/DX2         !
 ! A20   A(7,1,13)         67.2745   87.1023   45.5557 estimate D2E/DX2         !
 ! A21   A(7,1,21)         96.0597   89.3121   87.7196 estimate D2E/DX2         !
 ! A22   A(7,1,61)        109.5032  122.615    92.2245 estimate D2E/DX2         !
 ! A23   A(13,1,21)        67.0935   86.9744   45.554  estimate D2E/DX2         !
 ! A24   A(21,1,61)       109.0191  124.4079   92.2164 estimate D2E/DX2         !
 ! A25   L(1,2,3,18,-1)   184.9028  181.2299  179.5621 estimate D2E/DX2         !
 ! A26   L(1,2,3,22,-1)   180.2688  179.0518  179.5279 estimate D2E/DX2         !
 ! A27   L(1,2,3,18,-2)   176.4106  178.8291  179.7608 estimate D2E/DX2         !
 ! A28   L(1,2,3,22,-2)   174.1036  178.5473  180.1171 estimate D2E/DX2         !
 ! A29   L(1,4,5,8,-1)    179.471   178.9781  179.5473 estimate D2E/DX2         !
 ! A30   L(1,4,5,8,-2)    186.4717  181.8662  179.8672 estimate D2E/DX2         !
 ! A31   L(1,6,30,10,-1)  182.4396  181.4747  182.6714 estimate D2E/DX2         !
 ! A32   L(1,6,30,10,-2)  177.5801  178.99    178.0594 estimate D2E/DX2         !
 ! A33   A(1,7,10)        122.8381  121.4044  120.1501 estimate D2E/DX2         !
 ! A34   A(1,7,25)        119.7354  121.1552  122.4403 estimate D2E/DX2         !
 ! A35   A(10,7,25)       117.3378  117.3369  117.3751 estimate D2E/DX2         !
 ! A36   A(9,8,11)        121.1456  121.2244  121.0019 estimate D2E/DX2         !
 ! A37   A(9,8,25)        119.272   119.2911  119.5213 estimate D2E/DX2         !
 ! A38   A(11,8,25)       119.5575  119.4687  119.4588 estimate D2E/DX2         !
 ! A39   A(8,9,12)        120.5252  120.7321  120.7784 estimate D2E/DX2         !
 ! A40   A(8,9,33)        119.0928  118.9955  118.8861 estimate D2E/DX2         !
 ! A41   A(12,9,33)       120.3813  120.2701  120.331  estimate D2E/DX2         !
 ! A42   A(7,10,33)       124.4723  124.3771  124.5675 estimate D2E/DX2         !
 ! A43   A(7,10,56)       116.5599  116.7619  116.7806 estimate D2E/DX2         !
 ! A44   A(33,10,56)      118.9678  118.8603  118.6518 estimate D2E/DX2         !
 ! A45   A(8,11,19)        63.983    86.7094  101.5699 estimate D2E/DX2         !
 ! A46   L(1,13,14,8,-1)  179.8024  181.4217  143.4264 estimate D2E/DX2         !
 ! A47   L(1,13,14,8,-2)  176.3598  180.9146  272.8095 estimate D2E/DX2         !
 ! A48   A(14,13,62)      101.5861  135.1856  149.7131 estimate D2E/DX2         !
 ! A49   L(13,14,15,11,-1)  180.4047  178.6485  179.8378 estimate D2E/DX2       !
 ! A50   L(13,14,15,1,-1)  181.5156  179.3423  179.8053 estimate D2E/DX2        !
 ! A51   L(13,14,15,11,-2)  181.8671  177.655  180.1544 estimate D2E/DX2        !
 ! A52   L(13,14,15,1,-2)  140.8334  323.0409  179.8888 estimate D2E/DX2        !
 ! A53   A(14,15,16)      120.5562  118.8297  119.745  estimate D2E/DX2         !
 ! A54   A(14,15,18)      119.2339  119.8879  119.8197 estimate D2E/DX2         !
 ! A55   A(16,15,18)      120.2092  121.2822  120.4296 estimate D2E/DX2         !
 ! A56   A(15,16,17)      119.6254  119.0657  119.537  estimate D2E/DX2         !
 ! A57   A(15,16,19)      119.4421  120.1746  119.8713 estimate D2E/DX2         !
 ! A58   A(17,16,19)      120.9303  120.7597  120.591  estimate D2E/DX2         !
 ! A59   A(16,17,29)      120.1057  119.7748  119.7337 estimate D2E/DX2         !
 ! A60   A(16,17,57)      120.3265  119.9927  120.0872 estimate D2E/DX2         !
 ! A61   A(29,17,57)      119.5678  120.2326  120.1787 estimate D2E/DX2         !
 ! A62   A(15,18,20)      118.9674  119.4873  119.8693 estimate D2E/DX2         !
 ! A63   A(15,18,58)      119.5657  118.7694  119.546  estimate D2E/DX2         !
 ! A64   A(20,18,58)      121.4665  121.7433  120.5838 estimate D2E/DX2         !
 ! A65   A(11,19,16)       79.6698  112.1661  147.3575 estimate D2E/DX2         !
 ! A66   A(18,20,24)       68.2977   62.7598  151.9875 estimate D2E/DX2         !
 ! A67   A(18,20,61)      127.2465  162.5838   63.2149 estimate D2E/DX2         !
 ! A68   A(1,21,27)       118.927   121.2128  122.409  estimate D2E/DX2         !
 ! A69   A(1,21,54)       123.5963  121.3339  120.1792 estimate D2E/DX2         !
 ! A70   A(27,21,54)      117.2983  117.3326  117.3719 estimate D2E/DX2         !
 ! A71   A(23,22,24)      121.1267  121.2226  120.9754 estimate D2E/DX2         !
 ! A72   A(23,22,27)      119.313   119.2873  119.5087 estimate D2E/DX2         !
 ! A73   A(24,22,27)      119.5194  119.4755  119.497  estimate D2E/DX2         !
 ! A74   A(22,23,52)      118.9684  119.0084  118.8945 estimate D2E/DX2         !
 ! A75   A(22,23,53)      120.637   120.7383  120.7806 estimate D2E/DX2         !
 ! A76   A(52,23,53)      120.3927  120.2517  120.3201 estimate D2E/DX2         !
 ! A77   A(20,24,22)       89.3268   87.5038  100.821  estimate D2E/DX2         !
 ! A78   A(7,25,8)        122.5858  122.7164  122.4501 estimate D2E/DX2         !
 ! A79   A(7,25,26)       116.7166  116.9941  116.2352 estimate D2E/DX2         !
 ! A80   A(8,25,26)       120.6799  120.2893  121.3081 estimate D2E/DX2         !
 ! A81   A(21,27,22)      122.5954  122.7187  122.4637 estimate D2E/DX2         !
 ! A82   A(21,27,28)      116.3874  116.996   116.2248 estimate D2E/DX2         !
 ! A83   A(22,27,28)      120.9858  120.2851  121.3045 estimate D2E/DX2         !
 ! A84   A(39,31,43)      122.5991  122.5723  122.3093 estimate D2E/DX2         !
 ! A85   A(39,31,62)       61.5693   61.4914  118.8492 estimate D2E/DX2         !
 ! A86   A(39,31,63)      118.769   118.7182   61.3666 estimate D2E/DX2         !
 ! A87   A(43,31,62)       61.4781   61.4953  118.8238 estimate D2E/DX2         !
 ! A88   A(43,31,63)      118.626   118.7067   61.3697 estimate D2E/DX2         !
 ! A89   A(38,32,44)      121.861   121.9166  121.8486 estimate D2E/DX2         !
 ! A90   A(38,32,62)      119.1022  119.0443   61.0678 estimate D2E/DX2         !
 ! A91   A(38,32,63)       61.0397   61.0778  119.0633 estimate D2E/DX2         !
 ! A92   A(44,32,62)      119.0287  119.0318   61.0645 estimate D2E/DX2         !
 ! A93   A(44,32,63)       61.0662   61.068   119.0833 estimate D2E/DX2         !
 ! A94   A(9,33,10)       116.8241  117.0675  116.9662 estimate D2E/DX2         !
 ! A95   A(9,33,34)       122.6995  122.5908  122.9607 estimate D2E/DX2         !
 ! A96   A(10,33,34)      120.4646  120.3387  120.073  estimate D2E/DX2         !
 ! A97   A(33,34,35)      120.3237  120.9546  120.9417 estimate D2E/DX2         !
 ! A98   A(33,34,39)      120.7319  119.8331  119.8661 estimate D2E/DX2         !
 ! A99   A(35,34,39)      118.8799  119.1791  119.1341 estimate D2E/DX2         !
 ! A100  A(34,35,36)      121.6375  121.2786  121.2856 estimate D2E/DX2         !
 ! A101  A(34,35,40)      119.5094  119.6689  119.674  estimate D2E/DX2         !
 ! A102  A(36,35,40)      118.8091  119.0134  118.9947 estimate D2E/DX2         !
 ! A103  A(35,36,37)      120.6646  120.7171  120.7422 estimate D2E/DX2         !
 ! A104  A(35,36,41)      118.9994  119.0123  119.0173 estimate D2E/DX2         !
 ! A105  A(37,36,41)      120.303   120.2457  120.2125 estimate D2E/DX2         !
 ! A106  A(36,37,38)      120.3628  120.5328  120.5232 estimate D2E/DX2         !
 ! A107  A(36,37,42)      120.9243  120.6705  120.6689 estimate D2E/DX2         !
 ! A108  A(38,37,42)      118.7104  118.7953  118.8069 estimate D2E/DX2         !
 ! A109  A(32,38,37)      121.7748  122.24    122.2362 estimate D2E/DX2         !
 ! A110  A(32,38,39)      119.1921  118.9991  119.0121 estimate D2E/DX2         !
 ! A111  A(37,38,39)      119.0311  118.758   118.7457 estimate D2E/DX2         !
 ! A112  A(31,39,34)      122.4453  122.1059  121.9443 estimate D2E/DX2         !
 ! A113  A(31,39,38)      118.2975  118.4984  118.6455 estimate D2E/DX2         !
 ! A114  A(34,39,38)      119.2375  119.389   119.4053 estimate D2E/DX2         !
 ! A115  A(31,43,44)      118.4185  118.4837  118.6513 estimate D2E/DX2         !
 ! A116  A(31,43,48)      122.3578  122.1247  121.9344 estimate D2E/DX2         !
 ! A117  A(44,43,48)      119.2131  119.3848  119.4097 estimate D2E/DX2         !
 ! A118  A(32,44,43)      119.0704  119.0099  119.0034 estimate D2E/DX2         !
 ! A119  A(32,44,45)      121.8695  122.2187  122.2494 estimate D2E/DX2         !
 ! A120  A(43,44,45)      119.0572  118.7686  118.7409 estimate D2E/DX2         !
 ! A121  A(44,45,46)      120.364   120.528   120.5213 estimate D2E/DX2         !
 ! A122  A(44,45,49)      118.7851  118.7904  118.817  estimate D2E/DX2         !
 ! A123  A(46,45,49)      120.8494  120.6802  120.6609 estimate D2E/DX2         !
 ! A124  A(45,46,47)      120.6705  120.7068  120.7457 estimate D2E/DX2         !
 ! A125  A(45,46,50)      120.2465  120.2507  120.209  estimate D2E/DX2         !
 ! A126  A(47,46,50)      119.0549  119.0168  119.0169 estimate D2E/DX2         !
 ! A127  A(46,47,48)      121.6228  121.3037  121.2822 estimate D2E/DX2         !
 ! A128  A(46,47,51)      118.7375  118.9924  118.9961 estimate D2E/DX2         !
 ! A129  A(48,47,51)      119.5886  119.663   119.6765 estimate D2E/DX2         !
 ! A130  A(43,48,47)      118.8985  119.1567  119.1323 estimate D2E/DX2         !
 ! A131  A(43,48,52)      120.5211  119.9705  119.8668 estimate D2E/DX2         !
 ! A132  A(47,48,52)      120.5273  120.8346  120.9443 estimate D2E/DX2         !
 ! A133  A(23,52,48)      122.7167  122.5636  122.9353 estimate D2E/DX2         !
 ! A134  A(23,52,54)      116.896   117.0493  116.97   estimate D2E/DX2         !
 ! A135  A(48,52,54)      120.3859  120.3865  120.0947 estimate D2E/DX2         !
 ! A136  A(21,54,52)      124.4962  124.391   124.5567 estimate D2E/DX2         !
 ! A137  A(21,54,55)      116.4896  116.7506  116.7927 estimate D2E/DX2         !
 ! A138  A(52,54,55)      119.0122  118.8579  118.6503 estimate D2E/DX2         !
 ! A139  A(17,57,58)      119.9525  120.597   120.3067 estimate D2E/DX2         !
 ! A140  A(17,57,60)      120.0205  119.6479  119.8457 estimate D2E/DX2         !
 ! A141  A(58,57,60)      120.0269  119.7552  119.8473 estimate D2E/DX2         !
 ! A142  A(18,58,57)      120.3182  120.2931  120.0864 estimate D2E/DX2         !
 ! A143  A(18,58,59)      120.1009  119.4952  119.7296 estimate D2E/DX2         !
 ! A144  A(57,58,59)      119.5804  120.2117  120.1834 estimate D2E/DX2         !
 ! A145  A(13,62,31)        1.0525    8.5014  148.3802 estimate D2E/DX2         !
 ! D1    D(4,1,7,10)      127.1605  118.0929  116.3527 estimate D2E/DX2         !
 ! D2    D(4,1,7,25)      -56.3568  -65.7047  -65.8409 estimate D2E/DX2         !
 ! D3    D(6,1,7,10)       39.4972   28.7733   26.0902 estimate D2E/DX2         !
 ! D4    D(6,1,7,25)     -144.0201 -155.0243 -156.1034 estimate D2E/DX2         !
 ! D5    D(13,1,7,10)    -115.8216 -151.027   -86.5137 estimate D2E/DX2         !
 ! D6    D(13,1,7,25)      60.6611   25.1754   91.2927 estimate D2E/DX2         !
 ! D7    D(21,1,7,10)     -53.7795  -64.0218  -66.9962 estimate D2E/DX2         !
 ! D8    D(21,1,7,25)     122.7033  112.1806  110.8102 estimate D2E/DX2         !
 ! D9    D(61,1,7,10)    -166.4394  164.4312 -159.1273 estimate D2E/DX2         !
 ! D10   D(61,1,7,25)      10.0433  -19.3665   18.679  estimate D2E/DX2         !
 ! D11   D(2,1,15,16)    -111.7383 -132.5668  117.3152 estimate D2E/DX2         !
 ! D12   D(2,1,15,18)      67.4064   46.8712   -7.0382 estimate D2E/DX2         !
 ! D13   D(4,1,15,16)     145.3455  134.5698    8.9434 estimate D2E/DX2         !
 ! D14   D(4,1,15,18)     -35.5098  -45.9921 -115.41   estimate D2E/DX2         !
 ! D15   D(7,1,15,16)      71.7404   45.9148  -62.8995 estimate D2E/DX2         !
 ! D16   D(7,1,15,18)    -109.1148 -134.6472  172.7471 estimate D2E/DX2         !
 ! D17   D(21,1,15,16)    -36.6113  -43.5417 -170.8879 estimate D2E/DX2         !
 ! D18   D(21,1,15,18)    142.5335  135.8964   64.7587 estimate D2E/DX2         !
 ! D19   D(2,1,21,27)      59.5764   64.9775   66.0092 estimate D2E/DX2         !
 ! D20   D(2,1,21,54)    -125.4155 -119.1227 -116.3481 estimate D2E/DX2         !
 ! D21   D(6,1,21,27)     147.4899  154.3689  156.2852 estimate D2E/DX2         !
 ! D22   D(6,1,21,54)     -37.502   -29.7313  -26.0721 estimate D2E/DX2         !
 ! D23   D(7,1,21,27)    -119.8424 -112.6715 -110.6537 estimate D2E/DX2         !
 ! D24   D(7,1,21,54)      55.1658   63.2282   66.989  estimate D2E/DX2         !
 ! D25   D(13,1,21,27)    -57.6563  -25.5371  -91.1356 estimate D2E/DX2         !
 ! D26   D(13,1,21,54)    117.3518  150.3627   86.5071 estimate D2E/DX2         !
 ! D27   D(61,1,21,27)     -6.7812   17.5031  -18.5141 estimate D2E/DX2         !
 ! D28   D(61,1,21,54)    168.2269 -166.5972  159.1286 estimate D2E/DX2         !
 ! D29   D(1,7,10,33)     169.0664  170.9989  173.1231 estimate D2E/DX2         !
 ! D30   D(1,7,10,56)     -10.822    -8.6878   -6.7473 estimate D2E/DX2         !
 ! D31   D(25,7,10,33)     -7.4955   -5.3429   -4.7922 estimate D2E/DX2         !
 ! D32   D(25,7,10,56)    172.616   174.9705  175.3374 estimate D2E/DX2         !
 ! D33   D(1,7,25,8)     -173.1524 -174.1697 -177.2166 estimate D2E/DX2         !
 ! D34   D(1,7,25,26)       5.3245    5.9781    1.8568 estimate D2E/DX2         !
 ! D35   D(10,7,25,8)       3.521     2.1817    0.6474 estimate D2E/DX2         !
 ! D36   D(10,7,25,26)   -178.0021 -177.6705  179.7208 estimate D2E/DX2         !
 ! D37   D(11,8,9,12)      -1.6569   -1.589    -1.8553 estimate D2E/DX2         !
 ! D38   D(11,8,9,33)     178.0557  178.9627  178.9172 estimate D2E/DX2         !
 ! D39   D(25,8,9,12)     176.5226  176.9571  176.5923 estimate D2E/DX2         !
 ! D40   D(25,8,9,33)      -3.7648   -2.4911   -2.6352 estimate D2E/DX2         !
 ! D41   D(9,8,11,19)      90.7453  128.0158  111.5414 estimate D2E/DX2         !
 ! D42   D(25,8,11,19)    -87.429   -50.5278  -66.9071 estimate D2E/DX2         !
 ! D43   D(9,8,25,7)        1.956     1.6357    2.9883 estimate D2E/DX2         !
 ! D44   D(9,8,25,26)    -176.462  -178.5168 -176.0389 estimate D2E/DX2         !
 ! D45   D(11,8,25,7)    -179.8352 -179.7923 -178.5399 estimate D2E/DX2         !
 ! D46   D(11,8,25,26)      1.7468    0.0552    2.4328 estimate D2E/DX2         !
 ! D47   D(8,9,33,10)       0.2467   -0.3199   -1.0696 estimate D2E/DX2         !
 ! D48   D(8,9,33,34)    -178.5052  179.0584  179.0325 estimate D2E/DX2         !
 ! D49   D(12,9,33,10)    179.9597 -179.7707  179.6995 estimate D2E/DX2         !
 ! D50   D(12,9,33,34)      1.2078   -0.3925   -0.1985 estimate D2E/DX2         !
 ! D51   D(7,10,33,9)       5.6405    4.4392    5.015  estimate D2E/DX2         !
 ! D52   D(7,10,33,34)   -175.5781 -174.9538 -175.0839 estimate D2E/DX2         !
 ! D53   D(56,10,33,9)   -174.4736 -175.8802 -175.1168 estimate D2E/DX2         !
 ! D54   D(56,10,33,34)     4.3079    4.7267    4.7842 estimate D2E/DX2         !
 ! D55   D(8,11,19,16)    151.4317  117.7639   53.3578 estimate D2E/DX2         !
 ! D56   D(62,13,15,16)    16.8598    0.4233   89.7844 estimate D2E/DX2         !
 ! D57   D(62,13,15,18)  -163.7827 -179.8178  -89.249  estimate D2E/DX2         !
 ! D58   D(14,13,62,31)   177.2269    1.3918 -178.9573 estimate D2E/DX2         !
 ! D59   D(14,15,16,17)   179.1521  179.857  -178.3155 estimate D2E/DX2         !
 ! D60   D(14,15,16,19)    -0.3116   -0.1263    1.3773 estimate D2E/DX2         !
 ! D61   D(18,15,16,17)    -0.5291    0.0027    0.8132 estimate D2E/DX2         !
 ! D62   D(18,15,16,19)  -179.9927 -179.9806 -179.494  estimate D2E/DX2         !
 ! D63   D(14,15,18,20)     0.3563    0.1848   -1.3207 estimate D2E/DX2         !
 ! D64   D(14,15,18,58)  -179.4254 -179.8524  178.3373 estimate D2E/DX2         !
 ! D65   D(16,15,18,20)  -179.9584 -179.9624  179.5513 estimate D2E/DX2         !
 ! D66   D(16,15,18,58)     0.2599    0.0003   -0.7907 estimate D2E/DX2         !
 ! D67   D(15,16,17,29)  -179.6563  179.998   179.6371 estimate D2E/DX2         !
 ! D68   D(15,16,17,57)     0.3358   -0.0077   -0.1502 estimate D2E/DX2         !
 ! D69   D(19,16,17,29)    -0.2008   -0.0189   -0.0534 estimate D2E/DX2         !
 ! D70   D(19,16,17,57)   179.7913  179.9755 -179.8408 estimate D2E/DX2         !
 ! D71   D(15,16,19,11)   -48.5941  -64.5372  -76.5178 estimate D2E/DX2         !
 ! D72   D(17,16,19,11)   131.9494  115.4798  103.1717 estimate D2E/DX2         !
 ! D73   D(16,17,57,58)     0.1269    0.0098   -0.5324 estimate D2E/DX2         !
 ! D74   D(16,17,57,60)  -179.9411 -179.988   179.6298 estimate D2E/DX2         !
 ! D75   D(29,17,57,58)  -179.8809 -179.9959  179.6812 estimate D2E/DX2         !
 ! D76   D(29,17,57,60)     0.0511    0.0063   -0.1566 estimate D2E/DX2         !
 ! D77   D(15,18,20,24)   -42.4137  -39.6752   72.2844 estimate D2E/DX2         !
 ! D78   D(15,18,20,61)   -14.6672    2.2233   79.8547 estimate D2E/DX2         !
 ! D79   D(58,18,20,24)   137.3637  140.3632 -107.37   estimate D2E/DX2         !
 ! D80   D(58,18,20,61)   165.1102 -177.7383  -99.7997 estimate D2E/DX2         !
 ! D81   D(15,18,58,57)     0.2058    0.0017    0.1052 estimate D2E/DX2         !
 ! D82   D(15,18,58,59)   179.9524  179.9964 -179.6257 estimate D2E/DX2         !
 ! D83   D(20,18,58,57)  -179.5703  179.9635  179.7607 estimate D2E/DX2         !
 ! D84   D(20,18,58,59)     0.1763   -0.0418    0.0298 estimate D2E/DX2         !
 ! D85   D(18,20,24,22)    93.8154  118.348   -46.9348 estimate D2E/DX2         !
 ! D86   D(1,21,27,22)    171.6055  173.7347  176.964  estimate D2E/DX2         !
 ! D87   D(1,21,27,28)     -6.3711   -6.4186   -2.0847 estimate D2E/DX2         !
 ! D88   D(54,21,27,22)    -3.7161   -2.3232   -0.7414 estimate D2E/DX2         !
 ! D89   D(54,21,27,28)   178.3072  177.5235 -179.79   estimate D2E/DX2         !
 ! D90   D(1,21,54,52)   -167.349  -170.7064 -172.9049 estimate D2E/DX2         !
 ! D91   D(1,21,54,55)     12.1435    9.0522    6.903  estimate D2E/DX2         !
 ! D92   D(27,21,54,52)     7.7346    5.3464    4.8541 estimate D2E/DX2         !
 ! D93   D(27,21,54,55)  -172.7729 -174.895  -175.338  estimate D2E/DX2         !
 ! D94   D(24,22,23,52)  -178.7041 -178.8661 -178.9497 estimate D2E/DX2         !
 ! D95   D(24,22,23,53)     1.7871    1.5972    1.8437 estimate D2E/DX2         !
 ! D96   D(27,22,23,52)     3.6321    2.5283    2.6426 estimate D2E/DX2         !
 ! D97   D(27,22,23,53)  -175.8766 -177.0084 -176.5639 estimate D2E/DX2         !
 ! D98   D(23,22,24,20)  -126.8643 -167.1236 -114.2662 estimate D2E/DX2         !
 ! D99   D(27,22,24,20)    50.7947   11.4793   64.1416 estimate D2E/DX2         !
 ! D100  D(23,22,27,21)    -1.811    -1.5128   -2.9271 estimate D2E/DX2         !
 ! D101  D(23,22,27,28)   176.0747  178.6454  176.0741 estimate D2E/DX2         !
 ! D102  D(24,22,27,21)  -179.5128  179.8569  178.6415 estimate D2E/DX2         !
 ! D103  D(24,22,27,28)    -1.6271    0.0151   -2.3573 estimate D2E/DX2         !
 ! D104  D(22,23,52,48)   179.494  -179.5503 -179.0167 estimate D2E/DX2         !
 ! D105  D(22,23,52,54)    -0.0836    0.1582    1.0323 estimate D2E/DX2         !
 ! D106  D(53,23,52,48)    -0.996    -0.0113    0.1935 estimate D2E/DX2         !
 ! D107  D(53,23,52,54)   179.4263  179.6972 -179.7574 estimate D2E/DX2         !
 ! D108  D(43,31,39,34)  -170.098  -171.0588 -171.1073 estimate D2E/DX2         !
 ! D109  D(43,31,39,38)     8.2752    7.9929    8.0804 estimate D2E/DX2         !
 ! D110  D(62,31,39,34)  -177.9004 -178.5638   10.4416 estimate D2E/DX2         !
 ! D111  D(62,31,39,38)     0.4727    0.4878 -170.3707 estimate D2E/DX2         !
 ! D112  D(63,31,39,34)     9.0054    8.319  -178.7139 estimate D2E/DX2         !
 ! D113  D(63,31,39,38)  -172.6214 -172.6293    0.4738 estimate D2E/DX2         !
 ! D114  D(39,31,43,44)    -8.335    -8.0368   -8.1047 estimate D2E/DX2         !
 ! D115  D(39,31,43,48)   170.4673  171.0122  171.1092 estimate D2E/DX2         !
 ! D116  D(62,31,43,44)    -0.5258   -0.532   170.3468 estimate D2E/DX2         !
 ! D117  D(62,31,43,48)   178.2765  178.517   -10.4393 estimate D2E/DX2         !
 ! D118  D(63,31,43,44)   172.5604  172.5853   -0.4984 estimate D2E/DX2         !
 ! D119  D(63,31,43,48)    -8.6373   -8.3657  178.7155 estimate D2E/DX2         !
 ! D120  D(39,31,62,13)   -97.7148   86.7475   89.3766 estimate D2E/DX2         !
 ! D121  D(43,31,62,13)    89.7646  -86.0571  -89.1292 estimate D2E/DX2         !
 ! D122  D(44,32,38,37)   177.8059  178.0761  178.3863 estimate D2E/DX2         !
 ! D123  D(44,32,38,39)    -2.7127   -2.5547   -2.5202 estimate D2E/DX2         !
 ! D124  D(62,32,38,37)    -1.1448   -0.9271 -175.4289 estimate D2E/DX2         !
 ! D125  D(62,32,38,39)   178.3366  178.4421    3.6647 estimate D2E/DX2         !
 ! D126  D(63,32,38,37)  -176.446  -176.3626   -0.8107 estimate D2E/DX2         !
 ! D127  D(63,32,38,39)     3.0354    3.0066  178.2828 estimate D2E/DX2         !
 ! D128  D(38,32,44,43)     2.6589    2.5098    2.496  estimate D2E/DX2         !
 ! D129  D(38,32,44,45)  -177.9653 -178.1172 -178.4259 estimate D2E/DX2         !
 ! D130  D(62,32,44,43)  -178.3896 -178.4869   -3.689  estimate D2E/DX2         !
 ! D131  D(62,32,44,45)     0.9862    0.8861  175.3891 estimate D2E/DX2         !
 ! D132  D(63,32,44,43)    -3.0877   -3.052  -178.3071 estimate D2E/DX2         !
 ! D133  D(63,32,44,45)   176.2881  176.3211    0.771  estimate D2E/DX2         !
 ! D134  D(9,33,34,35)     45.0075   51.0888   50.1007 estimate D2E/DX2         !
 ! D135  D(9,33,34,39)   -137.9456 -131.0271 -132.6936 estimate D2E/DX2         !
 ! D136  D(10,33,34,35)  -133.7002 -129.5527 -129.7941 estimate D2E/DX2         !
 ! D137  D(10,33,34,39)    43.3467   48.3314   47.4115 estimate D2E/DX2         !
 ! D138  D(33,34,35,36)   176.3444  176.8502  176.1599 estimate D2E/DX2         !
 ! D139  D(33,34,35,40)    -1.2153   -0.8529   -1.356  estimate D2E/DX2         !
 ! D140  D(39,34,35,36)    -0.7567   -1.0475   -1.0659 estimate D2E/DX2         !
 ! D141  D(39,34,35,40)  -178.3164 -178.7507 -178.5818 estimate D2E/DX2         !
 ! D142  D(33,34,39,31)     5.4813    5.0696    6.0886 estimate D2E/DX2         !
 ! D143  D(33,34,39,38)  -172.8771 -173.9738 -173.0931 estimate D2E/DX2         !
 ! D144  D(35,34,39,31)  -177.4297 -177.0086 -176.6552 estimate D2E/DX2         !
 ! D145  D(35,34,39,38)     4.2118    3.9479    4.1631 estimate D2E/DX2         !
 ! D146  D(34,35,36,37)    -2.2995   -1.7539   -1.9335 estimate D2E/DX2         !
 ! D147  D(34,35,36,41)   179.7827 -179.946   179.9868 estimate D2E/DX2         !
 ! D148  D(40,35,36,37)   175.2768  175.9639  175.5989 estimate D2E/DX2         !
 ! D149  D(40,35,36,41)    -2.6409   -2.2281   -2.4808 estimate D2E/DX2         !
 ! D150  D(35,36,37,38)     1.7702    1.5673    1.7411 estimate D2E/DX2         !
 ! D151  D(35,36,37,42)  -177.6492 -177.994  -177.8964 estimate D2E/DX2         !
 ! D152  D(41,36,37,38)   179.6608  179.737   179.7978 estimate D2E/DX2         !
 ! D153  D(41,36,37,42)     0.2414    0.1757    0.1604 estimate D2E/DX2         !
 ! D154  D(36,37,38,32)  -178.7888 -179.2627 -179.5119 estimate D2E/DX2         !
 ! D155  D(36,37,38,39)     1.729     1.3667    1.3922 estimate D2E/DX2         !
 ! D156  D(42,37,38,32)     0.6433    0.3067    0.1322 estimate D2E/DX2         !
 ! D157  D(42,37,38,39)  -178.8389 -179.0639 -178.9637 estimate D2E/DX2         !
 ! D158  D(32,38,39,31)    -2.6218   -2.5673   -2.6519 estimate D2E/DX2         !
 ! D159  D(32,38,39,34)   175.8048  176.5107  176.5569 estimate D2E/DX2         !
 ! D160  D(37,38,39,31)   176.874   176.824   176.4737 estimate D2E/DX2         !
 ! D161  D(37,38,39,34)    -4.6994   -4.0979   -4.3176 estimate D2E/DX2         !
 ! D162  D(31,43,44,32)     2.7242    2.6566    2.6995 estimate D2E/DX2         !
 ! D163  D(31,43,44,45)  -176.6694 -176.7383 -176.4112 estimate D2E/DX2         !
 ! D164  D(48,43,44,32)  -176.1166 -176.4191 -176.5346 estimate D2E/DX2         !
 ! D165  D(48,43,44,45)     4.4898    4.186     4.3546 estimate D2E/DX2         !
 ! D166  D(31,43,48,47)   177.0056  176.9457  176.5563 estimate D2E/DX2         !
 ! D167  D(31,43,48,52)    -5.6309   -5.2827   -6.1537 estimate D2E/DX2         !
 ! D168  D(44,43,48,47)    -4.2012   -4.0136   -4.2356 estimate D2E/DX2         !
 ! D169  D(44,43,48,52)   173.1622  173.758   173.0544 estimate D2E/DX2         !
 ! D170  D(32,44,45,46)   179.0938  179.2214  179.5474 estimate D2E/DX2         !
 ! D171  D(32,44,45,49)    -0.4588   -0.3466   -0.1163 estimate D2E/DX2         !
 ! D172  D(43,44,45,46)    -1.5303   -1.4041   -1.3722 estimate D2E/DX2         !
 ! D173  D(43,44,45,49)   178.9171  179.0279  178.9641 estimate D2E/DX2         !
 ! D174  D(44,45,46,47)    -1.7593   -1.6024   -1.7832 estimate D2E/DX2         !
 ! D175  D(44,45,46,50)  -179.814  -179.7387 -179.8274 estimate D2E/DX2         !
 ! D176  D(49,45,46,47)   177.7839  177.9574  177.8742 estimate D2E/DX2         !
 ! D177  D(49,45,46,50)    -0.2707   -0.1789   -0.1699 estimate D2E/DX2         !
 ! D178  D(45,46,47,48)     2.0781    1.8123    1.9391 estimate D2E/DX2         !
 ! D179  D(45,46,47,51)  -175.3091 -175.853  -175.6076 estimate D2E/DX2         !
 ! D180  D(50,46,47,48)  -179.8444  179.9713 -179.9938 estimate D2E/DX2         !
 ! D181  D(50,46,47,51)     2.7684    2.306     2.4595 estimate D2E/DX2         !
 ! D182  D(46,47,48,43)     0.9627    1.0412    1.1177 estimate D2E/DX2         !
 ! D183  D(46,47,48,52)  -176.4005 -176.7106 -176.1422 estimate D2E/DX2         !
 ! D184  D(51,47,48,43)   178.3282  178.691   178.648  estimate D2E/DX2         !
 ! D185  D(51,47,48,52)     0.9649    0.9392    1.388  estimate D2E/DX2         !
 ! D186  D(43,48,52,23)   135.446   131.8205  132.61   estimate D2E/DX2         !
 ! D187  D(43,48,52,54)   -44.9907  -47.8786  -47.4405 estimate D2E/DX2         !
 ! D188  D(47,48,52,23)   -47.2338  -50.4459  -50.15   estimate D2E/DX2         !
 ! D189  D(47,48,52,54)   132.3296  129.855   129.7995 estimate D2E/DX2         !
 ! D190  D(23,52,54,21)    -5.8719   -4.2914   -5.0121 estimate D2E/DX2         !
 ! D191  D(23,52,54,55)   174.6475  175.9547  175.1833 estimate D2E/DX2         !
 ! D192  D(48,52,54,21)   174.54    175.4238  175.0354 estimate D2E/DX2         !
 ! D193  D(48,52,54,55)    -4.9406   -4.3301   -4.7691 estimate D2E/DX2         !
 ! D194  D(17,57,58,18)    -0.3994   -0.0068    0.5552 estimate D2E/DX2         !
 ! D195  D(17,57,58,59)   179.8527  179.9986 -179.7151 estimate D2E/DX2         !
 ! D196  D(60,57,58,18)   179.6685  179.991  -179.607  estimate D2E/DX2         !
 ! D197  D(60,57,58,59)    -0.0794   -0.0036    0.1226 estimate D2E/DX2         !
 --------------------------------------------------------------------------------
 Trust Radius=3.00D-01 FncErr=1.00D-07 GrdErr=1.00D-06 EigMax=2.50D+02 EigMin=1.00D-04
 Number of steps in this run=    378 maximum allowed number of steps=    378.
 Search for a saddle point of order  1.
 GradGradGradGradGradGradGradGradGradGradGradGradGradGradGradGradGradGrad

 Stoichiometry    C34H21BrMnN3O3
 Framework group  C1[X(C34H21BrMnN3O3)]
 Deg. of freedom   183
 Full point group                 C1      NOp   1
 Largest Abelian subgroup         C1      NOp   1
 Largest concise Abelian subgroup C1      NOp   1
                         Standard orientation:                         
 ---------------------------------------------------------------------
 Center     Atomic      Atomic             Coordinates (Angstroms)
 Number     Number       Type             X           Y           Z
 ---------------------------------------------------------------------
      1         25           0       -1.496827   -1.873226   -0.136929
      2          6           0       -2.394983   -2.710979   -1.499272
      3          8           0       -2.859847   -3.292381   -2.367940
      4          6           0       -2.382342   -2.875924    1.115396
      5          8           0       -2.825098   -3.560719    1.918819
      6          6           0       -0.289177   -3.164179   -0.219795
      7          7           0       -0.563639   -0.988620    1.469124
      8          6           0       -0.737762    0.323567    3.468145
      9          6           0        0.643547    0.505540    3.499264
     10          6           0        0.765798   -0.898475    1.575571
     11          1           0       -1.384510    0.771825    4.227396
     12          1           0        1.104671    1.125542    4.272695
     13          7           0       -2.039158    0.763752    0.061662
     14          6           0       -2.202914    1.908947    0.126536
     15          6           0       -2.453077    3.328439    0.204107
     16          6           0       -1.441142    4.245390   -0.092426
     17          6           0       -1.709656    5.614953   -0.028305
     18          6           0       -3.723935    3.778516    0.573652
     19          1           0       -0.457704    3.881725   -0.378492
     20          1           0       -4.498631    3.045017    0.801444
     21          7           0       -0.556112   -0.752899   -1.578318
     22          6           0       -0.742678    0.921399   -3.283360
     23          6           0        0.639626    1.091510   -3.305902
     24          1           0       -1.394833    1.519473   -3.921063
     25          6           0       -1.302153   -0.407976    2.434116
     26          1           0       -2.387626   -0.516722    2.355099
     27          6           0       -1.300698    0.008596   -2.399020
     28          1           0       -2.385145   -0.101212   -2.313146
     29          1           0       -0.927578    6.337125   -0.263486
     30          8           0        0.448227   -4.050090   -0.267388
     31          6           0        2.968890    0.390100    0.041100
     32          6           0        5.749930    0.237719    0.027481
     33          6           0        1.433943   -0.121030    2.530526
     34          6           0        2.921308   -0.007924    2.507446
     35          6           0        3.644877   -0.147552    3.665210
     36          6           0        5.073585   -0.121236    3.663984
     37          6           0        5.766766   -0.001588    2.493958
     38          6           0        5.068598    0.137843    1.248455
     39          6           0        3.631403    0.187290    1.255773
     40          1           0        3.121703   -0.322736    4.609732
     41          1           0        5.606537   -0.232990    4.611921
     42          1           0        6.861414   -0.019308    2.484171
     43          6           0        3.632486    0.377225   -1.191047
     44          6           0        5.069491    0.328545   -1.193851
     45          6           0        5.766767    0.387655   -2.447522
     46          6           0        5.072737    0.457191   -3.620074
     47          6           0        3.643904    0.434727   -3.623845
     48          6           0        2.921310    0.385553   -2.456741
     49          1           0        6.861588    0.368338   -2.443356
     50          1           0        5.606046    0.499096   -4.574553
     51          1           0        3.121085    0.413786   -4.583709
     52          6           0        1.434155    0.282446   -2.490442
     53          1           0        1.097530    1.852075   -3.945720
     54          6           0        0.770483   -0.658921   -1.691796
     55          1           0        1.359054   -1.366236   -1.109613
     56          1           0        1.352503   -1.475544    0.860031
     57          6           0       -2.973030    6.066112    0.334811
     58          6           0       -3.977099    5.150843    0.639235
     59          1           0       -4.962979    5.510637    0.925031
     60          1           0       -3.178780    7.143419    0.382640
     61         35           0       -4.450253   -1.169044   -0.107296
     62          1           0        6.845391    0.227537    0.026222
     63          1           0        1.892133    0.550314    0.051945
 ---------------------------------------------------------------------
 Rotational constants (GHZ):           0.0909966           0.0563286           0.0515455
 General basis read from cards:  (5D, 7F)
 There are   802 symmetry adapted cartesian basis functions of A   symmetry.
 There are   751 symmetry adapted basis functions of A   symmetry.
   751 basis functions,  1339 primitive gaussians,   802 cartesian basis functions
   165 alpha electrons      165 beta electrons
       nuclear repulsion energy      6080.4422349053 Hartrees.
 NAtoms=   63 NActive=   63 NUniq=   63 SFac= 1.00D+00 NAtFMM=   60 NAOKFM=T Big=T
 Integral buffers will be    131072 words long.
 Raffenetti 2 integral format.
 Two-electron integral symmetry is turned on.
 Nuclear repulsion after empirical dispersion term =     6080.3767325056 Hartrees.
 ------------------------------------------------------------------------------
 Polarizable Continuum Model (PCM)
 =================================
 Model                : PCM.
 Atomic radii         : UFF (Universal Force Field).
 Polarization charges : Total charges.
 Charge compensation  : None.
 Solution method      : On-the-fly selection.
 Cavity type          : Scaled VdW (van der Waals Surface) (Alpha=1.100).
 Cavity algorithm     : GePol (No added spheres)
                        Default sphere list used, NSphG=   63.
                        Lebedev-Laikov grids with approx.  5.0 points / Ang**2.
                        Smoothing algorithm: York/Karplus (Gamma=1.0000).
                        Polarization charges: spherical gaussians, with
                                              point-specific exponents (IZeta= 3).
                        Self-potential: point-specific (ISelfS= 7).
                        Self-field    : sphere-specific E.n sum rule (ISelfD= 2).
 1st derivatives      : Analytical E(r).r(x)/FMM algorithm (CHGder, D1EAlg=3).
                        Cavity 1st derivative terms included.
 Solvent              : TetraHydroFuran, Eps=   7.425700 Eps(inf)=   1.974025
 ------------------------------------------------------------------------------
 One-electron integrals computed using PRISM.
 PrsmSu:  requested number of processors reduced to:  11 ShMem   1 Linda.
 NBasis=   751 RedAO= T EigKep=  2.29D-04  NBF=   751
 NBsUse=   751 1.00D-06 EigRej= -1.00D+00 NBFU=   751
 ExpMin= 3.93D-02 ExpMax= 2.77D+05 ExpMxC= 1.70D+04 IAcc=3 IRadAn=         5 AccDes= 0.00D+00
 Harris functional with IExCor= 4639 and IRadAn=       5 diagonalized for initial guess.
 HarFok:  IExCor= 4639 AccDes= 0.00D+00 IRadAn=         5 IDoV= 1 UseB2=F ITyADJ=14
 ICtDFT=  3500011 ScaDFX=  1.000000  1.000000  1.000000  1.000000
 FoFCou: FMM=F IPFlag=           0 FMFlag=      100000 FMFlg1=        2001
         NFxFlg=           0 DoJE=T BraDBF=F KetDBF=T FulRan=T
         wScrn=  0.000000 ICntrl=       500 IOpCl=  0 I1Cent=   200000004 NGrid=           0
         NMat0=    1 NMatS0=      1 NMatT0=    0 NMatD0=    1 NMtDS0=    0 NMtDT0=    0
 Petite list used in FoFCou.
 Requested convergence on RMS density matrix=1.00D-08 within 128 cycles.
 Requested convergence on MAX density matrix=1.00D-06.
 Requested convergence on             energy=1.00D-06.
 No special actions if energy rises.
 CoulSu:  requested number of processors reduced to:  10 ShMem   1 Linda.
 Inv3:  Mode=1 IEnd=    67431243.
 Iteration    1 A*A^-1 deviation from unit magnitude is 3.33D-15 for     28.
 Iteration    1 A*A^-1 deviation from orthogonality  is 2.44D-15 for   3560   1193.
 Iteration    1 A^-1*A deviation from unit magnitude is 3.55D-15 for    615.
 Iteration    1 A^-1*A deviation from orthogonality  is 2.89D-15 for   3001    437.
 CoulSu:  requested number of processors reduced to:  10 ShMem   1 Linda.
 CoulSu:  requested number of processors reduced to:  10 ShMem   1 Linda.
 Error on total polarization charges =  0.01949
 SCF Done:  E(RwB97XD) =  -5421.43153267     A.U. after   20 cycles
            NFock= 20  Conv=0.55D-08     -V/T= 2.0041

 **********************************************************************

            Population analysis using the SCF density.

 **********************************************************************

 Orbital symmetries:
       Occupied  (A) (A) (A) (A) (A) (A) (A) (A) (A) (A) (A) (A)
                 (A) (A) (A) (A) (A) (A) (A) (A) (A) (A) (A) (A)
                 (A) (A) (A) (A) (A) (A) (A) (A) (A) (A) (A) (A)
                 (A) (A) (A) (A) (A) (A) (A) (A) (A) (A) (A) (A)
                 (A) (A) (A) (A) (A) (A) (A) (A) (A) (A) (A) (A)
                 (A) (A) (A) (A) (A) (A) (A) (A) (A) (A) (A) (A)
                 (A) (A) (A) (A) (A) (A) (A) (A) (A) (A) (A) (A)
                 (A) (A) (A) (A) (A) (A) (A) (A) (A) (A) (A) (A)
                 (A) (A) (A) (A) (A) (A) (A) (A) (A) (A) (A) (A)
                 (A) (A) (A) (A) (A) (A) (A) (A) (A) (A) (A) (A)
                 (A) (A) (A) (A) (A) (A) (A) (A) (A) (A) (A) (A)
                 (A) (A) (A) (A) (A) (A) (A) (A) (A) (A) (A) (A)
                 (A) (A) (A) (A) (A) (A) (A) (A) (A) (A) (A) (A)
                 (A) (A) (A) (A) (A) (A) (A) (A) (A)
       Virtual   (A) (A) (A) (A) (A) (A) (A) (A) (A) (A) (A) (A)
                 (A) (A) (A) (A) (A) (A) (A) (A) (A) (A) (A) (A)
                 (A) (A) (A) (A) (A) (A) (A) (A) (A) (A) (A) (A)
                 (A) (A) (A) (A) (A) (A) (A) (A) (A) (A) (A) (A)
                 (A) (A) (A) (A) (A) (A) (A) (A) (A) (A) (A) (A)
                 (A) (A) (A) (A) (A) (A) (A) (A) (A) (A) (A) (A)
                 (A) (A) (A) (A) (A) (A) (A) (A) (A) (A) (A) (A)
                 (A) (A) (A) (A) (A) (A) (A) (A) (A) (A) (A) (A)
                 (A) (A) (A) (A) (A) (A) (A) (A) (A) (A) (A) (A)
                 (A) (A) (A) (A) (A) (A) (A) (A) (A) (A) (A) (A)
                 (A) (A) (A) (A) (A) (A) (A) (A) (A) (A) (A) (A)
                 (A) (A) (A) (A) (A) (A) (A) (A) (A) (A) (A) (A)
                 (A) (A) (A) (A) (A) (A) (A) (A) (A) (A) (A) (A)
                 (A) (A) (A) (A) (A) (A) (A) (A) (A) (A) (A) (A)
                 (A) (A) (A) (A) (A) (A) (A) (A) (A) (A) (A) (A)
                 (A) (A) (A) (A) (A) (A) (A) (A) (A) (A) (A) (A)
                 (A) (A) (A) (A) (A) (A) (A) (A) (A) (A) (A) (A)
                 (A) (A) (A) (A) (A) (A) (A) (A) (A) (A) (A) (A)
                 (A) (A) (A) (A) (A) (A) (A) (A) (A) (A) (A) (A)
                 (A) (A) (A) (A) (A) (A) (A) (A) (A) (A) (A) (A)
                 (A) (A) (A) (A) (A) (A) (A) (A) (A) (A) (A) (A)
                 (A) (A) (A) (A) (A) (A) (A) (A) (A) (A) (A) (A)
                 (A) (A) (A) (A) (A) (A) (A) (A) (A) (A) (A) (A)
                 (A) (A) (A) (A) (A) (A) (A) (A) (A) (A) (A) (A)
                 (A) (A) (A) (A) (A) (A) (A) (A) (A) (A) (A) (A)
                 (A) (A) (A) (A) (A) (A) (A) (A) (A) (A) (A) (A)
                 (A) (A) (A) (A) (A) (A) (A) (A) (A) (A) (A) (A)
                 (A) (A) (A) (A) (A) (A) (A) (A) (A) (A) (A) (A)
                 (A) (A) (A) (A) (A) (A) (A) (A) (A) (A) (A) (A)
                 (A) (A) (A) (A) (A) (A) (A) (A) (A) (A) (A) (A)
                 (A) (A) (A) (A) (A) (A) (A) (A) (A) (A) (A) (A)
                 (A) (A) (A) (A) (A) (A) (A) (A) (A) (A) (A) (A)
                 (A) (A) (A) (A) (A) (A) (A) (A) (A) (A) (A) (A)
                 (A) (A) (A) (A) (A) (A) (A) (A) (A) (A) (A) (A)
                 (A) (A) (A) (A) (A) (A) (A) (A) (A) (A) (A) (A)
                 (A) (A) (A) (A) (A) (A) (A) (A) (A) (A) (A) (A)
                 (A) (A) (A) (A) (A) (A) (A) (A) (A) (A) (A) (A)
                 (A) (A) (A) (A) (A) (A) (A) (A) (A) (A) (A) (A)
                 (A) (A) (A) (A) (A) (A) (A) (A) (A) (A) (A) (A)
                 (A) (A) (A) (A) (A) (A) (A) (A) (A) (A) (A) (A)
                 (A) (A) (A) (A) (A) (A) (A) (A) (A) (A) (A) (A)
                 (A) (A) (A) (A) (A) (A) (A) (A) (A) (A) (A) (A)
                 (A) (A) (A) (A) (A) (A) (A) (A) (A) (A) (A) (A)
                 (A) (A) (A) (A) (A) (A) (A) (A) (A) (A) (A) (A)
                 (A) (A) (A) (A) (A) (A) (A) (A) (A) (A) (A) (A)
                 (A) (A) (A) (A) (A) (A) (A) (A) (A) (A) (A) (A)
                 (A) (A) (A) (A) (A) (A) (A) (A) (A) (A) (A) (A)
                 (A) (A) (A) (A) (A) (A) (A) (A) (A) (A) (A) (A)
                 (A) (A) (A) (A) (A) (A) (A) (A) (A) (A)
 The electronic state is 1-A.
 Alpha  occ. eigenvalues -- -482.96861-235.68929 -62.54884 -56.35476 -56.35429
 Alpha  occ. eigenvalues --  -56.35414 -27.45774 -23.51572 -23.51492 -23.51217
 Alpha  occ. eigenvalues --  -19.33189 -19.33080 -19.32781 -14.50084 -14.50021
 Alpha  occ. eigenvalues --  -14.46238 -10.40942 -10.40864 -10.40559 -10.36557
 Alpha  occ. eigenvalues --  -10.36551 -10.36010 -10.35948 -10.35884 -10.35506
 Alpha  occ. eigenvalues --  -10.34311 -10.34272 -10.34172 -10.34169 -10.33494
 Alpha  occ. eigenvalues --  -10.33488 -10.33311 -10.33215 -10.33212 -10.33190
 Alpha  occ. eigenvalues --  -10.32954 -10.32904 -10.32797 -10.32796 -10.32534
 Alpha  occ. eigenvalues --  -10.32327 -10.32258 -10.32203 -10.32196 -10.32019
 Alpha  occ. eigenvalues --  -10.31951 -10.31918 -10.31916 -10.31775 -10.31773
 Alpha  occ. eigenvalues --   -8.71640  -6.53439  -6.53276  -6.53223  -3.25220
 Alpha  occ. eigenvalues --   -2.63930  -2.63897  -2.63854  -2.63724  -2.63721
 Alpha  occ. eigenvalues --   -2.10908  -2.10506  -2.10029  -1.22166  -1.22074
 Alpha  occ. eigenvalues --   -1.21463  -1.08105  -1.07739  -1.01880  -1.00020
 Alpha  occ. eigenvalues --   -0.97866  -0.97318  -0.94117  -0.92912  -0.91147
 Alpha  occ. eigenvalues --   -0.90489  -0.89388  -0.88210  -0.87107  -0.86217
 Alpha  occ. eigenvalues --   -0.84990  -0.84727  -0.81743  -0.76674  -0.76376
 Alpha  occ. eigenvalues --   -0.75447  -0.75054  -0.75014  -0.74506  -0.74092
 Alpha  occ. eigenvalues --   -0.72144  -0.72019  -0.70072  -0.68730  -0.67519
 Alpha  occ. eigenvalues --   -0.65667  -0.64558  -0.64445  -0.64303  -0.63885
 Alpha  occ. eigenvalues --   -0.63816  -0.62398  -0.61742  -0.60566  -0.59685
 Alpha  occ. eigenvalues --   -0.59146  -0.57636  -0.57393  -0.57232  -0.57095
 Alpha  occ. eigenvalues --   -0.56234  -0.56093  -0.55906  -0.55626  -0.55221
 Alpha  occ. eigenvalues --   -0.55054  -0.54705  -0.54491  -0.54272  -0.54143
 Alpha  occ. eigenvalues --   -0.53395  -0.53100  -0.52997  -0.52795  -0.52264
 Alpha  occ. eigenvalues --   -0.52139  -0.51938  -0.51007  -0.51000  -0.50822
 Alpha  occ. eigenvalues --   -0.50396  -0.50074  -0.49884  -0.49210  -0.48562
 Alpha  occ. eigenvalues --   -0.48043  -0.47824  -0.47257  -0.47052  -0.45898
 Alpha  occ. eigenvalues --   -0.45807  -0.44973  -0.44665  -0.43741  -0.43464
 Alpha  occ. eigenvalues --   -0.42938  -0.41808  -0.41663  -0.41050  -0.40458
 Alpha  occ. eigenvalues --   -0.40013  -0.39251  -0.37493  -0.36134  -0.35478
 Alpha  occ. eigenvalues --   -0.35255  -0.33895  -0.33195  -0.33094  -0.32222
 Alpha  occ. eigenvalues --   -0.30826  -0.30222  -0.29897  -0.28340  -0.27843
 Alpha virt. eigenvalues --   -0.02914   0.00125   0.00505   0.00690   0.02075
 Alpha virt. eigenvalues --    0.02408   0.02498   0.03497   0.03873   0.05798
 Alpha virt. eigenvalues --    0.06260   0.06933   0.07877   0.07949   0.09318
 Alpha virt. eigenvalues --    0.09395   0.09617   0.10045   0.11613   0.11919
 Alpha virt. eigenvalues --    0.12232   0.12542   0.13449   0.13931   0.14382
 Alpha virt. eigenvalues --    0.14440   0.14807   0.15280   0.15425   0.16028
 Alpha virt. eigenvalues --    0.16273   0.16632   0.17314   0.18036   0.18829
 Alpha virt. eigenvalues --    0.19177   0.19691   0.19787   0.20560   0.20883
 Alpha virt. eigenvalues --    0.20971   0.21830   0.22212   0.22456   0.22890
 Alpha virt. eigenvalues --    0.23318   0.23577   0.23586   0.24766   0.25449
 Alpha virt. eigenvalues --    0.26600   0.26846   0.27639   0.27978   0.28937
 Alpha virt. eigenvalues --    0.28998   0.29939   0.30098   0.30718   0.30934
 Alpha virt. eigenvalues --    0.31030   0.31712   0.32510   0.32569   0.32847
 Alpha virt. eigenvalues --    0.33381   0.33768   0.33828   0.34042   0.34171
 Alpha virt. eigenvalues --    0.34315   0.34993   0.35357   0.35958   0.36109
 Alpha virt. eigenvalues --    0.36359   0.36739   0.36824   0.37734   0.37797
 Alpha virt. eigenvalues --    0.38341   0.38498   0.38957   0.39488   0.40018
 Alpha virt. eigenvalues --    0.40518   0.40795   0.41939   0.41989   0.42219
 Alpha virt. eigenvalues --    0.42292   0.43029   0.43319   0.43959   0.44554
 Alpha virt. eigenvalues --    0.44823   0.46047   0.46239   0.47112   0.47524
 Alpha virt. eigenvalues --    0.47800   0.48164   0.48579   0.48810   0.49432
 Alpha virt. eigenvalues --    0.50524   0.50797   0.50851   0.51261   0.51773
 Alpha virt. eigenvalues --    0.52356   0.52557   0.52860   0.53118   0.53494
 Alpha virt. eigenvalues --    0.53620   0.53674   0.54494   0.54567   0.55094
 Alpha virt. eigenvalues --    0.55319   0.55764   0.56149   0.56267   0.56477
 Alpha virt. eigenvalues --    0.56919   0.57452   0.58057   0.58516   0.58789
 Alpha virt. eigenvalues --    0.59585   0.59665   0.60556   0.60959   0.61030
 Alpha virt. eigenvalues --    0.61201   0.61436   0.61610   0.62198   0.62528
 Alpha virt. eigenvalues --    0.63793   0.64225   0.64276   0.64699   0.65374
 Alpha virt. eigenvalues --    0.65654   0.66413   0.66632   0.67009   0.67114
 Alpha virt. eigenvalues --    0.67394   0.68180   0.68259   0.68630   0.69212
 Alpha virt. eigenvalues --    0.69378   0.70452   0.70592   0.71111   0.71370
 Alpha virt. eigenvalues --    0.71991   0.72019   0.72235   0.72462   0.72734
 Alpha virt. eigenvalues --    0.73183   0.73414   0.73640   0.73734   0.74030
 Alpha virt. eigenvalues --    0.74327   0.74569   0.74976   0.75234   0.75501
 Alpha virt. eigenvalues --    0.75933   0.76077   0.76253   0.76476   0.77134
 Alpha virt. eigenvalues --    0.77294   0.77425   0.77692   0.78347   0.78677
 Alpha virt. eigenvalues --    0.79104   0.79545   0.79693   0.80292   0.80332
 Alpha virt. eigenvalues --    0.80646   0.80892   0.81629   0.81927   0.82056
 Alpha virt. eigenvalues --    0.82682   0.83191   0.83549   0.83623   0.84239
 Alpha virt. eigenvalues --    0.84455   0.84925   0.85507   0.85832   0.85946
 Alpha virt. eigenvalues --    0.86159   0.86618   0.87080   0.87241   0.87741
 Alpha virt. eigenvalues --    0.87910   0.88155   0.88406   0.88561   0.89172
 Alpha virt. eigenvalues --    0.89951   0.90185   0.90776   0.91322   0.91627
 Alpha virt. eigenvalues --    0.91776   0.91933   0.92533   0.92916   0.93715
 Alpha virt. eigenvalues --    0.94190   0.94984   0.95493   0.95941   0.96629
 Alpha virt. eigenvalues --    0.96809   0.97464   0.98193   0.98370   0.98793
 Alpha virt. eigenvalues --    1.00649   1.01667   1.01889   1.02299   1.02832
 Alpha virt. eigenvalues --    1.03316   1.03578   1.05079   1.06065   1.06892
 Alpha virt. eigenvalues --    1.07783   1.08403   1.09617   1.10339   1.11550
 Alpha virt. eigenvalues --    1.12074   1.12899   1.13269   1.14731   1.15388
 Alpha virt. eigenvalues --    1.15873   1.16348   1.16678   1.17231   1.17587
 Alpha virt. eigenvalues --    1.18589   1.19442   1.20000   1.21594   1.22127
 Alpha virt. eigenvalues --    1.22369   1.23471   1.24080   1.25149   1.25361
 Alpha virt. eigenvalues --    1.25996   1.26090   1.27118   1.28282   1.28847
 Alpha virt. eigenvalues --    1.29702   1.29855   1.30039   1.30264   1.30645
 Alpha virt. eigenvalues --    1.30861   1.31157   1.31405   1.32103   1.32264
 Alpha virt. eigenvalues --    1.32855   1.33988   1.34249   1.34610   1.35104
 Alpha virt. eigenvalues --    1.35458   1.35536   1.36261   1.36434   1.36583
 Alpha virt. eigenvalues --    1.36792   1.37729   1.39399   1.39497   1.39768
 Alpha virt. eigenvalues --    1.40234   1.41124   1.41387   1.42001   1.42735
 Alpha virt. eigenvalues --    1.43141   1.44712   1.44920   1.45758   1.46245
 Alpha virt. eigenvalues --    1.48685   1.49122   1.50970   1.51636   1.52912
 Alpha virt. eigenvalues --    1.55506   1.55771   1.56281   1.57619   1.59420
 Alpha virt. eigenvalues --    1.60285   1.60618   1.62971   1.64424   1.64669
 Alpha virt. eigenvalues --    1.66861   1.67040   1.67626   1.67984   1.70009
 Alpha virt. eigenvalues --    1.71145   1.71930   1.72361   1.72761   1.72997
 Alpha virt. eigenvalues --    1.73196   1.73620   1.73987   1.74116   1.74948
 Alpha virt. eigenvalues --    1.75342   1.75985   1.76473   1.77346   1.77638
 Alpha virt. eigenvalues --    1.78262   1.78460   1.78735   1.79025   1.79323
 Alpha virt. eigenvalues --    1.79495   1.79815   1.79989   1.80199   1.80753
 Alpha virt. eigenvalues --    1.81119   1.81305   1.81587   1.81875   1.82058
 Alpha virt. eigenvalues --    1.82367   1.82526   1.82666   1.82801   1.83319
 Alpha virt. eigenvalues --    1.83631   1.84393   1.84671   1.85251   1.85460
 Alpha virt. eigenvalues --    1.86007   1.86273   1.86778   1.87588   1.88312
 Alpha virt. eigenvalues --    1.88906   1.89604   1.89782   1.90461   1.90725
 Alpha virt. eigenvalues --    1.90909   1.91523   1.91722   1.92648   1.93792
 Alpha virt. eigenvalues --    1.94316   1.95546   1.96061   1.96414   1.97492
 Alpha virt. eigenvalues --    1.97927   1.98257   1.98726   1.99678   2.00272
 Alpha virt. eigenvalues --    2.00596   2.01015   2.01810   2.02266   2.02680
 Alpha virt. eigenvalues --    2.03103   2.03586   2.03921   2.04517   2.04954
 Alpha virt. eigenvalues --    2.05668   2.05868   2.06460   2.07061   2.07541
 Alpha virt. eigenvalues --    2.08999   2.09588   2.09810   2.10620   2.10872
 Alpha virt. eigenvalues --    2.10984   2.12009   2.12914   2.13968   2.15533
 Alpha virt. eigenvalues --    2.15640   2.16484   2.16979   2.17203   2.17604
 Alpha virt. eigenvalues --    2.18098   2.18900   2.20194   2.20496   2.20833
 Alpha virt. eigenvalues --    2.20897   2.21582   2.21983   2.22318   2.22956
 Alpha virt. eigenvalues --    2.24082   2.24432   2.24791   2.26068   2.26453
 Alpha virt. eigenvalues --    2.26969   2.29576   2.30935   2.31347   2.31969
 Alpha virt. eigenvalues --    2.32235   2.32650   2.33480   2.34293   2.34974
 Alpha virt. eigenvalues --    2.35230   2.36937   2.37293   2.37555   2.37672
 Alpha virt. eigenvalues --    2.38054   2.38504   2.38917   2.39491   2.39639
 Alpha virt. eigenvalues --    2.41258   2.41767   2.42506   2.42716   2.43370
 Alpha virt. eigenvalues --    2.44063   2.45244   2.45770   2.46532   2.46969
 Alpha virt. eigenvalues --    2.48027   2.48649   2.50236   2.50681   2.50887
 Alpha virt. eigenvalues --    2.54150   2.55937   2.57047   2.59326   2.59947
 Alpha virt. eigenvalues --    2.60818   2.61853   2.62103   2.64065   2.64778
 Alpha virt. eigenvalues --    2.66069   2.66977   2.67129   2.67561   2.67715
 Alpha virt. eigenvalues --    2.68273   2.68707   2.70905   2.70995   2.71122
 Alpha virt. eigenvalues --    2.71213   2.71243   2.71749   2.71889   2.72146
 Alpha virt. eigenvalues --    2.72178   2.72882   2.73254   2.74370   2.74827
 Alpha virt. eigenvalues --    2.75717   2.76919   2.79255   2.79622   2.79935
 Alpha virt. eigenvalues --    2.80714   2.80831   2.81326   2.81751   2.82115
 Alpha virt. eigenvalues --    2.84472   2.85561   2.86093   2.86903   2.87151
 Alpha virt. eigenvalues --    2.89834   2.90880   2.91707   2.95608   2.95719
 Alpha virt. eigenvalues --    2.96249   2.97960   2.98056   2.99404   3.01038
 Alpha virt. eigenvalues --    3.03257   3.05144   3.05950   3.06503   3.07563
 Alpha virt. eigenvalues --    3.09057   3.10194   3.10324   3.12030   3.12780
 Alpha virt. eigenvalues --    3.15834   3.16605   3.19332   3.19996   3.20557
 Alpha virt. eigenvalues --    3.21013   3.21139   3.22859   3.23415   3.25198
 Alpha virt. eigenvalues --    3.25348   3.30110   3.31317   3.32897   3.35142
 Alpha virt. eigenvalues --    3.38506   3.39135   3.42425   3.49481   3.50418
 Alpha virt. eigenvalues --    3.52043   3.53561   3.54925   3.57487   3.59739
 Alpha virt. eigenvalues --    3.62649   3.63687   3.64569   3.65292   3.66212
 Alpha virt. eigenvalues --    3.66305   3.66928   3.71854   3.71888   3.73011
 Alpha virt. eigenvalues --    3.76118   3.76858   3.77200   3.81352   3.82004
 Alpha virt. eigenvalues --    3.82528   3.91277   3.94308   3.99827   4.07047
 Alpha virt. eigenvalues --    4.13846
          Condensed to atoms (all electrons):
 Mulliken charges:
               1
     1  Mn  -0.724464
     2  C    0.368732
     3  O   -0.066703
     4  C    0.367939
     5  O   -0.067405
     6  C    0.308106
     7  N   -0.224295
     8  C   -0.035745
     9  C    0.033911
    10  C    0.095728
    11  H    0.060651
    12  H    0.052944
    13  N    0.018473
    14  C    0.000356
    15  C   -0.148222
    16  C    0.023959
    17  C   -0.025444
    18  C    0.022673
    19  H    0.040579
    20  H    0.059949
    21  N   -0.223467
    22  C   -0.036180
    23  C    0.035639
    24  H    0.058850
    25  C    0.113117
    26  H    0.094727
    27  C    0.116502
    28  H    0.096108
    29  H    0.049896
    30  O   -0.089113
    31  C   -0.186633
    32  C   -0.083957
    33  C   -0.035205
    34  C    0.066343
    35  C   -0.067515
    36  C   -0.018937
    37  C   -0.019515
    38  C    0.016530
    39  C    0.078731
    40  H    0.035412
    41  H    0.043620
    42  H    0.032559
    43  C    0.076829
    44  C    0.016597
    45  C   -0.019250
    46  C   -0.020010
    47  C   -0.064716
    48  C    0.062310
    49  H    0.032620
    50  H    0.044087
    51  H    0.034811
    52  C   -0.040316
    53  H    0.052970
    54  C    0.094127
    55  H    0.065951
    56  H    0.063603
    57  C   -0.009508
    58  C   -0.023642
    59  H    0.050626
    60  H    0.055760
    61  Br  -0.783132
    62  H    0.021518
    63  H    0.049531
 Sum of Mulliken charges =  -0.00000
 Mulliken charges with hydrogens summed into heavy atoms:
               1
     1  Mn  -0.724464
     2  C    0.368732
     3  O   -0.066703
     4  C    0.367939
     5  O   -0.067405
     6  C    0.308106
     7  N   -0.224295
     8  C    0.024905
     9  C    0.086855
    10  C    0.159331
    13  N    0.018473
    14  C    0.000356
    15  C   -0.148222
    16  C    0.064539
    17  C    0.024452
    18  C    0.082622
    21  N   -0.223467
    22  C    0.022670
    23  C    0.088609
    25  C    0.207844
    27  C    0.212610
    30  O   -0.089113
    31  C   -0.137101
    32  C   -0.062439
    33  C   -0.035205
    34  C    0.066343
    35  C   -0.032102
    36  C    0.024683
    37  C    0.013044
    38  C    0.016530
    39  C    0.078731
    43  C    0.076829
    44  C    0.016597
    45  C    0.013370
    46  C    0.024077
    47  C   -0.029904
    48  C    0.062310
    52  C   -0.040316
    54  C    0.160078
    57  C    0.046252
    58  C    0.026984
    61  Br  -0.783132
 Electronic spatial extent (au):  <R**2>=          23053.7427
 Charge=             -0.0000 electrons
 Dipole moment (field-independent basis, Debye):
    X=             15.3497    Y=             12.6738    Z=              1.0358  Tot=             19.9327
 Quadrupole moment (field-independent basis, Debye-Ang):
   XX=           -287.4297   YY=           -249.3794   ZZ=           -221.0842
   XY=            -37.4503   XZ=             -5.6879   YZ=             -3.6318
 Traceless Quadrupole moment (field-independent basis, Debye-Ang):
   XX=            -34.7986   YY=              3.2517   ZZ=             31.5469
   XY=            -37.4503   XZ=             -5.6879   YZ=             -3.6318
 Octapole moment (field-independent basis, Debye-Ang**2):
  XXX=            337.0917  YYY=            160.9571  ZZZ=              9.9570  XYY=           -137.8092
  XXY=            138.8567  XXZ=             26.2215  XZZ=             28.6767  YZZ=             11.7813
  YYZ=             -0.8389  XYZ=            -21.4106
 Hexadecapole moment (field-independent basis, Debye-Ang**3):
 XXXX=         -15571.1156 YYYY=          -6978.9028 ZZZZ=          -5658.2258 XXXY=           -555.1438
 XXXZ=           -117.6180 YYYX=           -412.9188 YYYZ=             56.8728 ZZZX=              8.2329
 ZZZY=            -77.8260 XXYY=          -3992.7061 XXZZ=          -3327.6179 YYZZ=          -2566.5479
 XXYZ=             24.6430 YYXZ=            -77.8477 ZZXY=             37.5478
 N-N= 6.080376732506D+03 E-N=-2.498974644982D+04  KE= 5.399414663515D+03
 PrsmSu:  requested number of processors reduced to:  11 ShMem   1 Linda.
 D1PCM: PCM CHGder 1st derivatives, ID1Alg=3 FixD1E=F DoIter=F DoCFld=F I1PDM=0.
 CoulSu:  requested number of processors reduced to:  10 ShMem   1 Linda.
 CoulSu:  requested number of processors reduced to:  10 ShMem   1 Linda.
[...]
   D52       -3.06447   0.00021   0.00000   0.00135   0.00107  -3.06340
   D53       -3.04394  -0.00009   0.00000   0.00094   0.00070  -3.04325
   D54        0.07733   0.00031   0.00000  -0.00047  -0.00057   0.07675
   D55        2.69443   0.00017   0.00000  -0.01875  -0.01810   2.67632
   D56        0.30184  -0.00313   0.00000  -0.00284  -0.00481   0.29703
   D57       -2.84206  -0.00268   0.00000  -0.00441  -0.00544  -2.84750
   D58       -3.11266   0.00080   0.00000   0.00225   0.00254  -3.11012
   D59        3.12931   0.00081   0.00000  -0.00288   0.00002   3.12933
   D60       -0.00437   0.00035   0.00000  -0.00515  -0.00258  -0.00695
   D61       -0.01044   0.00028   0.00000   0.00252   0.00172  -0.00872
   D62        3.13906  -0.00017   0.00000   0.00025  -0.00087   3.13819
   D63        0.01016  -0.00127   0.00000   0.00315   0.00001   0.01017
   D64       -3.13432  -0.00075   0.00000   0.00377   0.00074  -3.13358
   D65       -3.13326  -0.00075   0.00000  -0.00220  -0.00167  -3.13493
   D66        0.00544  -0.00023   0.00000  -0.00159  -0.00094   0.00450
   D67       -3.13581  -0.00022   0.00000  -0.00137  -0.00125  -3.13706
   D68        0.00622  -0.00012   0.00000  -0.00135  -0.00094   0.00529
   D69       -0.00226   0.00025   0.00000   0.00096   0.00141  -0.00085
   D70        3.13978   0.00035   0.00000   0.00097   0.00171   3.14149
   D71       -0.81564   0.00028   0.00000  -0.01216  -0.01042  -0.82607
   D72        2.33397  -0.00017   0.00000  -0.01445  -0.01305   2.32092
   D73        0.00296  -0.00014   0.00000  -0.00077  -0.00065   0.00231
   D74       -3.14117   0.00001   0.00000  -0.00010  -0.00024  -3.14141
   D75       -3.13819  -0.00004   0.00000  -0.00075  -0.00034  -3.13854
   D76        0.00087   0.00011   0.00000  -0.00009   0.00007   0.00094
   D77       -0.75075  -0.00116   0.00000   0.00663   0.00500  -0.74575
   D78       -0.23318   0.00104   0.00000  -0.00605  -0.00742  -0.24060
   D79        2.39379  -0.00169   0.00000   0.00601   0.00426   2.39805
   D80        2.91136   0.00052   0.00000  -0.00668  -0.00816   2.90319
   D81        0.00381  -0.00002   0.00000  -0.00054  -0.00065   0.00316
   D82       -3.14076  -0.00011   0.00000   0.00017   0.00001  -3.14075
   D83       -3.14072   0.00051   0.00000   0.00010   0.00010  -3.14063
   D84       -0.00211   0.00042   0.00000   0.00080   0.00076  -0.00135
   D85        1.54614   0.00144   0.00000   0.02477   0.02485   1.57099
   D86        2.98203  -0.00082   0.00000  -0.00428  -0.00364   2.97840
   D87       -0.11326  -0.00004   0.00000  -0.00438  -0.00428  -0.11754
   D88       -0.06793  -0.00005   0.00000  -0.00204  -0.00157  -0.06950
   D89        3.11996   0.00073   0.00000  -0.00213  -0.00221   3.11775
   D90       -2.90795  -0.00011   0.00000   0.00325   0.00302  -2.90493
   D91        0.22413   0.00020   0.00000   0.00086   0.00040   0.22453
   D92        0.13479  -0.00079   0.00000   0.00134   0.00140   0.13618
   D93       -3.01632  -0.00049   0.00000  -0.00105  -0.00122  -3.01754
   D94       -3.12640  -0.00102   0.00000  -0.00043  -0.00034  -3.12673
   D95        0.02780  -0.00057   0.00000  -0.00082  -0.00056   0.02723
   D96        0.05894  -0.00084   0.00000  -0.00080  -0.00070   0.05824
   D97       -3.07005  -0.00039   0.00000  -0.00120  -0.00093  -3.07098
   D98       -2.09546   0.00068   0.00000  -0.02758  -0.02667  -2.12213
   D99        1.00270   0.00048   0.00000  -0.02732  -0.02642   0.97627
   D100      -0.02633   0.00086   0.00000   0.00182   0.00125  -0.02508
   D101       3.06684   0.00008   0.00000   0.00196   0.00196   3.06880
   D102      -3.12551   0.00101   0.00000   0.00158   0.00102  -3.12449
   D103      -0.03234   0.00023   0.00000   0.00171   0.00173  -0.03061
   D104       3.13419   0.00032   0.00000   0.00086   0.00131   3.13551
   D105       0.00013   0.00010   0.00000   0.00016   0.00056   0.00069
   D106      -0.01997  -0.00012   0.00000   0.00125   0.00154  -0.01843
   D107       3.12915  -0.00034   0.00000   0.00056   0.00079   3.12994
   D108      -2.97740  -0.00080   0.00000   0.00075   0.00076  -2.97664
   D109       0.15027  -0.00033   0.00000  -0.00005  -0.00007   0.15020
   D110      -3.14078   0.00022   0.00000   0.00497   0.00499  -3.13579
   D111      -0.01310   0.00070   0.00000   0.00416   0.00415  -0.00895
   D112       0.21522  -0.00129   0.00000  -0.00814  -0.00811   0.20711
   D113      -2.94029  -0.00082   0.00000  -0.00895  -0.00895  -2.94924
   D114      -0.15101   0.00020   0.00000   0.00061   0.00065  -0.15036
   D115       2.97937   0.00082   0.00000  -0.00095  -0.00090   2.97846
   D116       0.01176  -0.00075   0.00000  -0.00344  -0.00336   0.00840
   D117      -3.14104  -0.00013   0.00000  -0.00499  -0.00492   3.13723
   D118       2.93962   0.00069   0.00000   0.00949   0.00951   2.94913
   D119      -0.21319   0.00130   0.00000   0.00793   0.00796  -0.20523
   D120      -1.64259  -0.00063   0.00000   0.00547   0.00563  -1.63696
   D121       1.64989  -0.00089   0.00000   0.00305   0.00324   1.65313
   D122       3.11222   0.00029   0.00000  -0.00054  -0.00061   3.11161
   D123      -0.05110   0.00009   0.00000   0.00173   0.00169  -0.04941
   D124      -0.07794   0.00128   0.00000   0.00872   0.00866  -0.06928
   D125       3.04192   0.00108   0.00000   0.01099   0.01096   3.05288
   D126      -3.04439  -0.00067   0.00000  -0.00503  -0.00503  -3.04942
   D127       0.07547  -0.00087   0.00000  -0.00276  -0.00273   0.07274
   D128       0.05031  -0.00017   0.00000  -0.00113  -0.00109   0.04922
   D129      -3.11391  -0.00037   0.00000   0.00033   0.00039  -3.11352
   D130      -3.04235  -0.00114   0.00000  -0.01052  -0.01051  -3.05285
   D131       0.07662  -0.00134   0.00000  -0.00905  -0.00903   0.06759
   D132      -0.07629   0.00080   0.00000   0.00337   0.00336  -0.07293
   D133       3.04268   0.00060   0.00000   0.00484   0.00483   3.04751
   D134       0.78881   0.00123   0.00000   0.00128   0.00125   0.79006
   D135      -2.40180   0.00159   0.00000   0.00005  -0.00004  -2.40184
   D136      -2.33133   0.00082   0.00000   0.00280   0.00262  -2.32871
   D137       0.76124   0.00117   0.00000   0.00157   0.00133   0.76257
   D138       3.08142   0.00002   0.00000  -0.00213  -0.00217   3.07925
   D139      -0.01772   0.00020   0.00000  -0.00037  -0.00042  -0.01814
   D140      -0.01201  -0.00034   0.00000  -0.00093  -0.00088  -0.01290
   D141      -3.11116  -0.00016   0.00000   0.00084   0.00087  -3.11029
   D142       0.10422   0.00021   0.00000   0.00132   0.00134   0.10555
   D143      -3.02319  -0.00030   0.00000   0.00209   0.00213  -3.02105
   D144      -3.08562   0.00057   0.00000   0.00002  -0.00001  -3.08563
   D145       0.07017   0.00006   0.00000   0.00079   0.00079   0.07095
   D146      -0.03800   0.00017   0.00000   0.00030   0.00026  -0.03773
   D147       3.13688   0.00012   0.00000   0.00071   0.00069   3.13757
   D148       3.06145  -0.00001   0.00000  -0.00144  -0.00146   3.05999
   D149      -0.04686  -0.00005   0.00000  -0.00103  -0.00103  -0.04789
   D150       0.02832   0.00001   0.00000   0.00026   0.00025   0.02856
   D151      -3.10540  -0.00013   0.00000   0.00029   0.00031  -3.10508
   D152       3.13618   0.00006   0.00000  -0.00017  -0.00019   3.13599
   D153       0.00247  -0.00009   0.00000  -0.00013  -0.00013   0.00234
   D154      -3.13309  -0.00040   0.00000   0.00208   0.00214  -3.13095
   D155       0.03050  -0.00024   0.00000  -0.00028  -0.00025   0.03025
   D156       0.00080  -0.00026   0.00000   0.00205   0.00207   0.00287
   D157      -3.11880  -0.00010   0.00000  -0.00032  -0.00032  -3.11911
   D158      -0.04506  -0.00007   0.00000  -0.00156  -0.00160  -0.04666
   D159       3.08318   0.00038   0.00000  -0.00234  -0.00241   3.08078
   D160       3.07546  -0.00025   0.00000   0.00061   0.00062   3.07607
   D161      -0.07948   0.00020   0.00000  -0.00016  -0.00019  -0.07968
   D162       0.04675   0.00019   0.00000   0.00036   0.00033   0.04708
   D163      -3.07308   0.00038   0.00000  -0.00099  -0.00101  -3.07410
   D164      -3.08399  -0.00040   0.00000   0.00185   0.00180  -3.08219
   D165       0.07937  -0.00022   0.00000   0.00050   0.00046   0.07982
   D166       3.08074  -0.00080   0.00000   0.00063   0.00066   3.08140
   D167      -0.10853  -0.00048   0.00000  -0.00133  -0.00114  -0.10968
   D168      -0.07233  -0.00014   0.00000  -0.00091  -0.00087  -0.07320
   D169       3.02158   0.00018   0.00000  -0.00287  -0.00267   3.01891
   D170       3.13558   0.00046   0.00000  -0.00147  -0.00149   3.13409
   D171       0.00089   0.00026   0.00000  -0.00132  -0.00133  -0.00044
   D172      -0.02889   0.00031   0.00000   0.00008   0.00006  -0.02883
   D173       3.11961   0.00011   0.00000   0.00022   0.00021   3.11982
   D174      -0.02870  -0.00010   0.00000  -0.00052  -0.00051  -0.02921
   D175      -3.13777  -0.00010   0.00000   0.00049   0.00048  -3.13729
   D176       3.10584   0.00010   0.00000  -0.00067  -0.00067   3.10517
   D177      -0.00323   0.00011   0.00000   0.00034   0.00033  -0.00290
   D178       0.03601  -0.00016   0.00000   0.00021   0.00020   0.03621
   D179      -3.06022  -0.00001   0.00000   0.00099   0.00094  -3.05928
   D180      -3.13772  -0.00016   0.00000  -0.00078  -0.00077  -3.13849
   D181       0.04923  -0.00000   0.00000   0.00000  -0.00003   0.04920
   D182       0.01507   0.00042   0.00000   0.00065   0.00066   0.01573
   D183      -3.07861   0.00008   0.00000   0.00249   0.00233  -3.07628
   D184       3.11093   0.00027   0.00000  -0.00013  -0.00008   3.11085
   D185       0.01725  -0.00007   0.00000   0.00171   0.00159   0.01884
   D186       2.36553  -0.00176   0.00000  -0.00332  -0.00348   2.36205
   D187      -0.78384  -0.00152   0.00000  -0.00260  -0.00270  -0.78654
   D188      -0.82489  -0.00140   0.00000  -0.00516  -0.00513  -0.83001
   D189       2.30893  -0.00116   0.00000  -0.00444  -0.00435   2.30458
   D190      -0.10122   0.00058   0.00000  -0.00055  -0.00107  -0.10229
   D191       3.05011   0.00027   0.00000   0.00189   0.00161   3.05172
   D192       3.04767   0.00037   0.00000  -0.00122  -0.00179   3.04589
   D193      -0.08418   0.00005   0.00000   0.00123   0.00089  -0.08329
   D194      -0.00800   0.00019   0.00000   0.00170   0.00144  -0.00657
   D195       3.13656   0.00028   0.00000   0.00101   0.00078   3.13734
   D196       3.13612   0.00004   0.00000   0.00104   0.00103   3.13715
   D197      -0.00250   0.00013   0.00000   0.00034   0.00037  -0.00213
         Item               Value     Threshold  Converged?
 Maximum Force            0.024477     0.000450     NO 
 RMS     Force            0.002963     0.000300     NO 
 Maximum Displacement     0.227413     0.001800     NO 
 RMS     Displacement     0.042823     0.001200     NO 
 Predicted change in Energy= 2.846093D-03
 GradGradGradGradGradGradGradGradGradGradGradGradGradGradGradGradGradGrad

 Stoichiometry    C34H21BrMnN3O3
 Framework group  C1[X(C34H21BrMnN3O3)]
 Deg. of freedom   183
 Full point group                 C1      NOp   1
 Largest Abelian subgroup         C1      NOp   1
 Largest concise Abelian subgroup C1      NOp   1
                         Standard orientation:                         
 ---------------------------------------------------------------------
 Center     Atomic      Atomic             Coordinates (Angstroms)
 Number     Number       Type             X           Y           Z
 ---------------------------------------------------------------------
      1         25           0       -1.651997   -1.891040   -0.079977
      2          6           0       -2.603226   -2.729165   -1.409419
      3          8           0       -3.106630   -3.325095   -2.246825
      4          6           0       -2.593637   -2.807899    1.201267
      5          8           0       -3.099014   -3.443940    2.008138
      6          6           0       -0.512081   -3.241676   -0.117336
      7          7           0       -0.660867   -0.976403    1.500066
      8          6           0       -0.786368    0.432017    3.435339
      9          6           0        0.598644    0.559861    3.463334
     10          6           0        0.668845   -0.929848    1.603668
     11          1           0       -1.412258    0.937038    4.172339
     12          1           0        1.082903    1.196609    4.207882
     13          7           0       -1.898922    0.955284    0.039152
     14          6           0       -1.947654    2.107098    0.070019
     15          6           0       -2.053453    3.537622    0.123679
     16          6           0       -0.955188    4.336552   -0.198323
     17          6           0       -1.080219    5.724908   -0.155013
     18          6           0       -3.269474    4.116240    0.497722
     19          1           0       -0.015344    3.868716   -0.484300
     20          1           0       -4.114996    3.474590    0.751915
     21          7           0       -0.653204   -0.845886   -1.561089
     22          6           0       -0.808557    0.801845   -3.286897
     23          6           0        0.578391    0.934057   -3.325956
     24          1           0       -1.457697    1.405045   -3.918557
     25          6           0       -1.377142   -0.323494    2.434840
     26          1           0       -2.465178   -0.389233    2.351032
     27          6           0       -1.381267   -0.080877   -2.388303
     28          1           0       -2.467061   -0.155921   -2.288310
     29          1           0       -0.228463    6.357011   -0.409153
     30          8           0        0.183039   -4.162468   -0.137248
     31          6           0        2.922525    0.239162    0.018435
     32          6           0        5.646898    0.002386    0.013094
     33          6           0        1.362681   -0.135335    2.524143
     34          6           0        2.847959   -0.074458    2.499171
     35          6           0        3.566986   -0.193420    3.662116
     36          6           0        4.994456   -0.214007    3.659028
     37          6           0        5.685410   -0.159046    2.483502
     38          6           0        4.983771   -0.044536    1.238179
     39          6           0        3.561443    0.048635    1.243514
     40          1           0        3.040125   -0.316506    4.612151
     41          1           0        5.526127   -0.306521    4.609068
     42          1           0        6.778100   -0.208465    2.469794
     43          6           0        3.564560    0.172103   -1.216295
     44          6           0        4.988420    0.078735   -1.216507
     45          6           0        5.689630    0.092151   -2.468007
     46          6           0        4.997509    0.159190   -3.642917
     47          6           0        3.568715    0.180956   -3.646479
     48          6           0        2.847792    0.178001   -2.477890
     49          1           0        6.782417    0.041099   -2.461408
     50          1           0        5.530688    0.165411   -4.597286
     51          1           0        3.044208    0.156194   -4.605060
     52          6           0        1.358484    0.117258   -2.502496
     53          1           0        1.050193    1.672006   -3.980599
     54          6           0        0.674944   -0.792613   -1.683075
     55          1           0        1.247046   -1.504276   -1.090169
     56          1           0        1.233593   -1.558574    0.916118
     57          6           0       -2.289844    6.307715    0.212852
     58          6           0       -3.381369    5.505802    0.542419
     59          1           0       -4.324090    5.967183    0.833325
     60          1           0       -2.383692    7.398724    0.245370
     61         35           0       -4.385456   -0.895818   -0.096381
     62          1           0        6.764124    0.016082    0.022150
     63          1           0        1.840405    0.498962    0.028583
 ---------------------------------------------------------------------
 Rotational constants (GHZ):           0.0889414           0.0582545           0.0523673
 Basis read from rwf:  (5D, 7F)
 There are   802 symmetry adapted cartesian basis functions of A   symmetry.
 There are   751 symmetry adapted basis functions of A   symmetry.
   751 basis functions,  1339 primitive gaussians,   802 cartesian basis functions
   165 alpha electrons      165 beta electrons
       nuclear repulsion energy      6099.4838273411 Hartrees.
 NAtoms=   63 NActive=   63 NUniq=   63 SFac= 1.00D+00 NAtFMM=   60 NAOKFM=T Big=T
 Integral buffers will be    131072 words long.
 Raffenetti 2 integral format.
 Two-electron integral symmetry is turned on.
 Nuclear repulsion after empirical dispersion term =     6099.4180918771 Hartrees.
 ------------------------------------------------------------------------------
 Polarizable Continuum Model (PCM)
 =================================
 Model                : PCM.
 Atomic radii         : UFF (Universal Force Field).
 Polarization charges : Total charges.
 Charge compensation  : None.
 Solution method      : On-the-fly selection.
 Cavity type          : Scaled VdW (van der Waals Surface) (Alpha=1.100).
 Cavity algorithm     : GePol (No added spheres)
                        Default sphere list used, NSphG=   63.
                        Lebedev-Laikov grids with approx.  5.0 points / Ang**2.
                        Smoothing algorithm: York/Karplus (Gamma=1.0000).
                        Polarization charges: spherical gaussians, with
                                              point-specific exponents (IZeta= 3).
                        Self-potential: point-specific (ISelfS= 7).
                        Self-field    : sphere-specific E.n sum rule (ISelfD= 2).
 1st derivatives      : Analytical E(r).r(x)/FMM algorithm (CHGder, D1EAlg=3).
                        Cavity 1st derivative terms included.
 Solvent              : TetraHydroFuran, Eps=   7.425700 Eps(inf)=   1.974025
 ------------------------------------------------------------------------------
 One-electron integrals computed using PRISM.
 PrsmSu:  requested number of processors reduced to:  11 ShMem   1 Linda.
 NBasis=   751 RedAO= T EigKep=  2.23D-04  NBF=   751
 NBsUse=   751 1.00D-06 EigRej= -1.00D+00 NBFU=   751
 Initial guess from the checkpoint file:  "checkpoint.chk"
 B after Tr=    -0.000000    0.000000    0.000000
         Rot=    0.999898    0.006507    0.000890   -0.012702 Ang=   1.64 deg.
 ExpMin= 3.93D-02 ExpMax= 2.77D+05 ExpMxC= 1.70D+04 IAcc=3 IRadAn=         5 AccDes= 0.00D+00
 Harris functional with IExCor= 4639 and IRadAn=       5 diagonalized for initial guess.
 HarFok:  IExCor= 4639 AccDes= 0.00D+00 IRadAn=         5 IDoV= 1 UseB2=F ITyADJ=14
 ICtDFT=  3500011 ScaDFX=  1.000000  1.000000  1.000000  1.000000
 FoFCou: FMM=F IPFlag=           0 FMFlag=      100000 FMFlg1=        2001
         NFxFlg=           0 DoJE=T BraDBF=F KetDBF=T FulRan=T
         wScrn=  0.000000 ICntrl=       500 IOpCl=  0 I1Cent=   200000004 NGrid=           0
         NMat0=    1 NMatS0=      1 NMatT0=    0 NMatD0=    1 NMtDS0=    0 NMtDT0=    0
 Petite list used in FoFCou.
 Requested convergence on RMS density matrix=1.00D-08 within 128 cycles.
 Requested convergence on MAX density matrix=1.00D-06.
 Requested convergence on             energy=1.00D-06.
 No special actions if energy rises.
 CoulSu:  requested number of processors reduced to:   9 ShMem   1 Linda.
 Inv3:  Mode=1 IEnd=    68029932.
 Iteration    1 A*A^-1 deviation from unit magnitude is 4.00D-15 for   3159.
 Iteration    1 A*A^-1 deviation from orthogonality  is 2.44D-15 for   3429    624.
 Iteration    1 A^-1*A deviation from unit magnitude is 3.77D-15 for   3159.
 Iteration    1 A^-1*A deviation from orthogonality  is 2.66D-15 for   4065   2280.
 CoulSu:  requested number of processors reduced to:   9 ShMem   1 Linda.
 CoulSu:  requested number of processors reduced to:   9 ShMem   1 Linda.
