 Entering Gaussian System, Link 0=g16
 Initial command:
 /home1/apps/gaussian/16rA.03/g16/l1.exe "/tmp/Gau-60430.inp" -scrdir="/tmp/"
 Entering Link 1 = /home1/apps/gaussian/16rA.03/g16/l1.exe PID=     60432.
  
 Copyright (c) 1988,1990,1992,1993,1995,1998,2003,2009,2016,
            Gaussian, Inc.  All Rights Reserved.
  
 This is part of the Gaussian(R) 16 program.  It is based on
 the Gaussian(R) 09 system (copyright 2009, Gaussian, Inc.),
 the Gaussian(R) 03 system (copyright 2003, Gaussian, Inc.),
 the Gaussian(R) 98 system (copyright 1998, Gaussian, Inc.),
 the Gaussian(R) 94 system (copyright 1995, Gaussian, Inc.),
 the Gaussian 92(TM) system (copyright 1992, Gaussian, Inc.),
 the Gaussian 90(TM) system (copyright 1990, Gaussian, Inc.),
 the Gaussian 88(TM) system (copyright 1988, Gaussian, Inc.),
 the Gaussian 86(TM) system (copyright 1986, Carnegie Mellon
 University), and the Gaussian 82(TM) system (copyright 1983,
 Carnegie Mellon University). Gaussian is a federally registered
 trademark of Gaussian, Inc.
  
 This software contains proprietary and confidential information,
 including trade secrets, belonging to Gaussian, Inc.
  
 This software is provided under written license and may be
 used, copied, transmitted, or stored only in accord with that
 written license.
  
 The following legend is applicable only to US Government
 contracts under FAR:
  
                    RESTRICTED RIGHTS LEGEND
  
 Use, reproduction and disclosure by the US Government is
 subject to restrictions as set forth in subparagraphs (a)
 and (c) of the Commercial Computer Software - Restricted
 Rights clause in FAR 52.227-19.
  
 Gaussian, Inc.
 340 Quinnipiac St., Bldg. 40, Wallingford CT 06492
  
  
 ---------------------------------------------------------------
 Warning -- This program may not be used in any manner that
 competes with the business of Gaussian, Inc. or will provide
 assistance to any competitor of Gaussian, Inc.  The licensee
 of this program is prohibited from giving any competitor of
 Gaussian, Inc. access to this program.  By using this program,
 the user acknowledges that Gaussian, Inc. is engaged in the
 business of creating and licensing software in the field of
 computational chemistry and represents and warrants to the
 licensee that it is not a competitor of Gaussian, Inc. and that
 it will not use this program in any manner prohibited above.
 ---------------------------------------------------------------
  

 Cite this work as:
 Gaussian 16, Revision A.03,
 M. J. Frisch, G. W. Trucks, H. B. Schlegel, G. E. Scuseria, 
 M. A. Robb, J. R. Cheeseman, G. Scalmani, V. Barone, 
 G. A. Petersson, H. Nakatsuji, X. Li, M. Caricato, A. V. Marenich, 
 J. Bloino, B. G. Janesko, R. Gomperts, B. Mennucci, H. P. Hratchian, 
 J. V. Ortiz, A. F. Izmaylov, J. L. Sonnenberg, D. Williams-Young, 
 F. Ding, F. Lipparini, F. Egidi, J. Goings, B. Peng, A. Petrone, 
 T. Henderson, D. Ranasinghe, V. G. Zakrzewski, J. Gao, N. Rega, 
 G. Zheng, W. Liang, M. Hada, M. Ehara, K. Toyota, R. Fukuda, 
 J. Hasegawa, M. Ishida, T. Nakajima, Y. Honda, O. Kitao, H. Nakai, 
 T. Vreven, K. Throssell, J. A. Montgomery, Jr., J. E. Peralta, 
 F. Ogliaro, M. J. Bearpark, J. J. Heyd, E. N. Brothers, K. N. Kudin, 
 V. N. Staroverov, T. A. Keith, R. Kobayashi, J. Normand, 
 K. Raghavachari, A. P. Rendell, J. C. Burant, S. S. Iyengar, 
 J. Tomasi, M. Cossi, J. M. Millam, M. Klene, C. Adamo, R. Cammi, 
 J. W. Ochterski, R. L. Martin, K. Morokuma, O. Farkas, 
 J. B. Foresman, and D. J. Fox, Gaussian, Inc., Wallingford CT, 2016.
 
 ******************************************
 Gaussian 16:  ES64L-G16RevA.03 25-Dec-2016
                21-Mar-2023 
 ******************************************
 %NProcShared=12
 Will use up to   12 processors via shared memory.
 %Chk=checkpoint.chk
 -------------------------------------------------------
 # wB97XD Gen SCRF=(Solvent=TetraHydroFuran) Opt=Restart
 -------------------------------------------------------
 1/18=20,19=15,26=3,35=1/3(2);
 2/9=110/2;
 99//99;
 2/9=110/2;
 3/5=7,6=1,11=2,25=1,30=1,70=2205,71=1,72=20,74=-58,82=7/1,2,3;
 4/5=5,16=3,69=1/1;
 5/5=2,38=5,53=20/2;
 7//1,2,3,16;
 1/18=20,19=15,26=3/3(-5);
 2/9=110/2;
 6/7=2,8=2,9=2,10=2,19=2,28=1/1;
 99/9=1/99;

 GradGradGradGradGradGradGradGradGradGradGradGradGradGradGradGradGradGrad
 Berny optimization.
 Restoring state from the checkpoint file "checkpoint.chk".
 ONIOM results not found on unit 2.
 Title:  Thian Prod Optimization
 Route:  # wB97XD Gen SCRF=(Solvent=TetraHydroFuran) Opt
 Using GEDIIS/GDIIS optimizer.
 FormGI is forming the generalized inverse of G from B-inverse, IUseBI=4.
 Internal  Forces:  Max     0.000175507 RMS     0.000016730
 Search for a local minimum.
 Step number  47 out of a maximum of  356
 All quantities printed in internal units (Hartrees-Bohrs-Radians)
 Mixed Optimization -- En-DIIS/RFO-DIIS
 Swapping is turned off.
 Update second derivatives using D2CorX and points   30   31   32   33   34
                                                     35   36   37   38   39
                                                     40   41   42   43   44
                                                     45   46   47
 DE= -5.20D-07 DEPred=-6.86D-07 R= 7.57D-01
 Trust test= 7.57D-01 RLast= 1.79D-02 DXMaxT set to 1.73D-01
 ITU=  0  1  1  1  1 -1 -1  1  1  1  1  1  1  1  1  1 -1  1  1  1
 ITU=  1  0  1  1 -1 -1  1  1  1  1  1  1  1 -1 -1  1  1  1  1  1
 ITU=  0  1  0  0  0  1  0
     Eigenvalues ---    0.00234   0.00298   0.00439   0.00962   0.01171
     Eigenvalues ---    0.01472   0.01563   0.01639   0.01682   0.01707
     Eigenvalues ---    0.01803   0.01842   0.01883   0.01905   0.01934
     Eigenvalues ---    0.01944   0.01963   0.02008   0.02047   0.02096
     Eigenvalues ---    0.02131   0.02138   0.02146   0.02150   0.02157
     Eigenvalues ---    0.02165   0.02166   0.02173   0.02177   0.02177
     Eigenvalues ---    0.02181   0.02186   0.02196   0.02197   0.02201
     Eigenvalues ---    0.02210   0.02230   0.02241   0.02253   0.02282
     Eigenvalues ---    0.02311   0.02341   0.02375   0.02414   0.02659
     Eigenvalues ---    0.02881   0.03113   0.03684   0.03985   0.04236
     Eigenvalues ---    0.04918   0.05272   0.05645   0.06101   0.06569
     Eigenvalues ---    0.07157   0.07912   0.08552   0.09304   0.09904
     Eigenvalues ---    0.10520   0.10719   0.10932   0.11721   0.12876
     Eigenvalues ---    0.13359   0.15043   0.15516   0.15697   0.15965
     Eigenvalues ---    0.15991   0.15994   0.15996   0.15997   0.15999
     Eigenvalues ---    0.15999   0.15999   0.16002   0.16004   0.16006
     Eigenvalues ---    0.16015   0.16040   0.16045   0.16075   0.16098
     Eigenvalues ---    0.16219   0.16510   0.17063   0.18097   0.19461
     Eigenvalues ---    0.20604   0.21131   0.21390   0.21777   0.22068
     Eigenvalues ---    0.22094   0.22101   0.22155   0.22222   0.22525
     Eigenvalues ---    0.22716   0.22946   0.23396   0.23493   0.23551
     Eigenvalues ---    0.23700   0.23771   0.23940   0.24150   0.24526
     Eigenvalues ---    0.24838   0.25111   0.25612   0.25900   0.26763
     Eigenvalues ---    0.27001   0.27530   0.27954   0.33083   0.33708
     Eigenvalues ---    0.34354   0.34567   0.34574   0.34585   0.34594
     Eigenvalues ---    0.34614   0.34617   0.34647   0.34668   0.34671
     Eigenvalues ---    0.34674   0.34757   0.34785   0.34802   0.34830
     Eigenvalues ---    0.34865   0.35100   0.35294   0.35510   0.38094
     Eigenvalues ---    0.38651   0.40249   0.40789   0.41654   0.41732
     Eigenvalues ---    0.41863   0.42390   0.42612   0.44049   0.44242
     Eigenvalues ---    0.44342   0.44839   0.45363   0.45821   0.45898
     Eigenvalues ---    0.45939   0.46032   0.46300   0.46423   0.46601
     Eigenvalues ---    0.46780   0.46850   0.46890   0.47161   0.47350
     Eigenvalues ---    0.48950   0.52047   0.53973   0.54444   0.55938
     Eigenvalues ---    0.57023   1.34562   1.37630   1.41896   1.46052
     Eigenvalues ---    1.60086   2.86123
 En-DIIS/RFO-DIIS/Sim-DIIS IScMMF=       -3 using points:    47   46   45   44   43   42   41   40   39   38
 RFO step:  Lambda=-3.93057778D-07.
 DIIS inversion failure, remove point  10.
 DIIS inversion failure, remove point   9.
 RFO-DIIS uses    8 points instead of   10
 DidBck=F Rises=F RFO-DIIS coefs:    1.31306   -0.55258    0.00586    0.08780   -2.00000
                  RFO-DIIS coefs:    0.96848    0.49109    0.68629    0.00000    0.00000
 Iteration  1 RMS(Cart)=  0.00127052 RMS(Int)=  0.00000147
 Iteration  2 RMS(Cart)=  0.00000075 RMS(Int)=  0.00000145
 Variable       Old X    -DE/DX   Delta X   Delta X   Delta X     New X
                                 (Linear)    (Quad)   (Total)
    R1        3.43917   0.00002   0.00012  -0.00003   0.00009   3.43927
    R2        3.44041   0.00002   0.00005  -0.00000   0.00004   3.44046
    R3        3.38873  -0.00002   0.00001   0.00001   0.00002   3.38874
    R4        4.09023  -0.00000   0.00013  -0.00022  -0.00010   4.09014
    R5        4.08215   0.00000   0.00015  -0.00001   0.00014   4.08229
    R6        4.95427  -0.00002  -0.00030   0.00040   0.00009   4.95436
    R7        2.16149  -0.00003  -0.00002   0.00000  -0.00001   2.16148
    R8        2.16150  -0.00002   0.00001  -0.00001  -0.00000   2.16150
    R9        2.17330  -0.00001  -0.00003   0.00002  -0.00001   2.17329
   R10        2.52559  -0.00000   0.00001  -0.00003  -0.00003   2.52556
   R11        2.53875  -0.00001   0.00002  -0.00002  -0.00000   2.53875
   R12        2.63204   0.00001   0.00002   0.00001   0.00003   2.63207
   R13        2.06011  -0.00000   0.00000  -0.00000  -0.00000   2.06011
   R14        2.62489  -0.00000  -0.00003   0.00001  -0.00001   2.62488
   R15        2.06347  -0.00000  -0.00000   0.00000  -0.00000   2.06347
   R16        2.63463   0.00001   0.00002  -0.00000   0.00002   2.63465
   R17        2.63702  -0.00002  -0.00001  -0.00000  -0.00001   2.63701
   R18        2.05860  -0.00000  -0.00000  -0.00002  -0.00002   2.05859
   R19        2.18826  -0.00018  -0.00008   0.00001  -0.00008   2.18819
   R20        7.97771  -0.00000   0.00154   0.00146   0.00300   7.98071
   R21        2.71911   0.00004   0.00001   0.00002   0.00004   2.71915
   R22        2.64990  -0.00003  -0.00011   0.00007  -0.00005   2.64985
   R23        2.64966  -0.00003   0.00003  -0.00004  -0.00001   2.64965
   R24        2.62958   0.00000   0.00006  -0.00003   0.00003   2.62961
   R25        2.06210   0.00000   0.00001  -0.00000   0.00001   2.06211
   R26        2.06253  -0.00000  -0.00000  -0.00000  -0.00000   2.06252
   R27        2.63694  -0.00003  -0.00008   0.00005  -0.00003   2.63692
   R28        2.06177   0.00001   0.00001   0.00000   0.00001   2.06178
   R29        2.62752  -0.00002  -0.00008   0.00005  -0.00003   2.62748
   R30        2.53755  -0.00001   0.00000  -0.00001  -0.00001   2.53754
   R31        2.52576   0.00002   0.00004   0.00002   0.00006   2.52582
   R32        2.62869   0.00000  -0.00001  -0.00000  -0.00001   2.62868
   R33        2.05981  -0.00000  -0.00001   0.00001   0.00000   2.05981
   R34        2.62415   0.00000   0.00002   0.00002   0.00004   2.62418
   R35        2.63627   0.00002   0.00004   0.00001   0.00004   2.63631
   R36        2.06372  -0.00000  -0.00000  -0.00000  -0.00000   2.06371
   R37        2.06146   0.00001   0.00001   0.00001   0.00002   2.06148
   R38        2.06151   0.00000  -0.00002   0.00001  -0.00002   2.06150
   R39        3.35661   0.00001  -0.00002   0.00002   0.00000   3.35662
   R40        3.35886   0.00001  -0.00003   0.00001  -0.00002   3.35884
   R41        3.35690   0.00000   0.00002  -0.00000   0.00002   3.35692
   R42        3.35813   0.00000   0.00001  -0.00000   0.00001   3.35814
   R43        2.81661   0.00000   0.00001  -0.00002  -0.00001   2.81659
   R44        2.64181   0.00000   0.00002   0.00001   0.00002   2.64183
   R45        2.65985   0.00000   0.00004  -0.00003   0.00000   2.65985
   R46        2.63308  -0.00000  -0.00002   0.00001  -0.00001   2.63307
   R47        2.06338   0.00000  -0.00000   0.00000   0.00000   2.06338
   R48        2.63102   0.00000   0.00001  -0.00000   0.00001   2.63102
   R49        2.06231   0.00000   0.00000  -0.00000   0.00000   2.06231
   R50        2.63993  -0.00000  -0.00002   0.00002  -0.00001   2.63993
   R51        2.06314  -0.00000  -0.00000   0.00000  -0.00000   2.06314
   R52        2.64688  -0.00000   0.00001  -0.00001   0.00000   2.64688
   R53        2.64893   0.00000   0.00001  -0.00002  -0.00000   2.64893
   R54        2.66159  -0.00001  -0.00000  -0.00003  -0.00003   2.66156
   R55        2.63962  -0.00000  -0.00002   0.00001  -0.00001   2.63961
   R56        2.63020   0.00001   0.00002   0.00000   0.00002   2.63022
   R57        2.06313  -0.00000  -0.00000  -0.00000  -0.00000   2.06313
   R58        2.63164  -0.00000  -0.00001   0.00002   0.00001   2.63165
   R59        2.06230  -0.00000  -0.00000   0.00000   0.00000   2.06230
   R60        2.64440   0.00001   0.00003  -0.00003  -0.00001   2.64440
   R61        2.06353  -0.00000   0.00000  -0.00000   0.00000   2.06353
   R62        2.81569   0.00001   0.00002   0.00001   0.00004   2.81572
   R63        2.63580  -0.00003  -0.00005  -0.00002  -0.00006   2.63574
   R64        2.05703   0.00000   0.00000   0.00001   0.00002   2.05705
   R65        2.63609   0.00000   0.00003  -0.00003   0.00000   2.63609
   R66        2.06379  -0.00000   0.00000  -0.00000   0.00000   2.06380
   R67        2.06233  -0.00001  -0.00010   0.00007  -0.00003   2.06230
    A1        1.61588   0.00000   0.00001  -0.00001  -0.00001   1.61587
    A2        1.56895   0.00001   0.00014   0.00002   0.00015   1.56911
    A3        1.57796  -0.00000  -0.00017   0.00026   0.00009   1.57805
    A4        1.47044  -0.00002  -0.00006  -0.00003  -0.00009   1.47035
    A5        1.57882   0.00002   0.00017  -0.00026  -0.00010   1.57872
    A6        1.57486  -0.00001   0.00007  -0.00023  -0.00017   1.57469
    A7        1.47826  -0.00001   0.00029  -0.00025   0.00003   1.47830
    A8        1.63277  -0.00000  -0.00011   0.00003  -0.00009   1.63268
    A9        1.62391  -0.00003  -0.00045   0.00050   0.00004   1.62395
   A10        1.51098   0.00001   0.00011  -0.00004   0.00008   1.51106
   A11        1.61556   0.00001   0.00003  -0.00001   0.00001   1.61557
   A12        1.60794   0.00002  -0.00001   0.00004   0.00003   1.60797
   A13        2.09506  -0.00001   0.00001  -0.00004  -0.00003   2.09503
   A14        2.13953   0.00000   0.00001   0.00001   0.00002   2.13956
   A15        2.04801   0.00001  -0.00003   0.00005   0.00003   2.04803
   A16        2.11504   0.00000   0.00002  -0.00002  -0.00000   2.11504
   A17        2.08421   0.00000   0.00000   0.00001   0.00001   2.08422
   A18        2.08377  -0.00000  -0.00002   0.00002  -0.00001   2.08377
   A19        2.11164   0.00000   0.00000  -0.00001  -0.00001   2.11163
   A20        2.06822  -0.00001  -0.00001   0.00002   0.00000   2.06822
   A21        2.10328   0.00000   0.00001  -0.00000   0.00001   2.10329
   A22        2.16892   0.00000   0.00002  -0.00000   0.00002   2.16893
   A23        2.04998   0.00001   0.00005  -0.00003   0.00002   2.05000
   A24        2.06429  -0.00001  -0.00007   0.00003  -0.00004   2.06425
   A25        1.31580   0.00014  -0.00002   0.00033   0.00031   1.31611
   A26        2.09075  -0.00004   0.00024  -0.00019   0.00006   2.09081
   A27        2.08877   0.00003  -0.00028   0.00020  -0.00008   2.08869
   A28        2.10354   0.00001   0.00003  -0.00001   0.00002   2.10356
   A29        2.08464   0.00001   0.00000   0.00001   0.00001   2.08465
   A30        2.09383  -0.00000   0.00007  -0.00004   0.00002   2.09386
   A31        2.10470  -0.00001  -0.00007   0.00003  -0.00003   2.10466
   A32        2.08984   0.00001  -0.00001   0.00002   0.00000   2.08984
   A33        2.09618  -0.00002  -0.00002  -0.00001  -0.00003   2.09616
   A34        2.09716   0.00001   0.00003  -0.00001   0.00002   2.09718
   A35        2.08706   0.00001   0.00003  -0.00001   0.00002   2.08708
   A36        2.08448  -0.00002  -0.00004   0.00001  -0.00004   2.08445
   A37        2.11117   0.00001   0.00002  -0.00000   0.00002   2.11119
   A38        2.13798  -0.00002  -0.00024   0.00014  -0.00009   2.13788
   A39        2.09598   0.00003   0.00030  -0.00014   0.00017   2.09615
   A40        2.04919  -0.00000  -0.00007   0.00000  -0.00006   2.04912
   A41        2.11495   0.00001   0.00005   0.00001   0.00005   2.11500
   A42        2.08407   0.00000  -0.00000  -0.00001  -0.00001   2.08406
   A43        2.08392  -0.00001  -0.00004  -0.00000  -0.00005   2.08387
   A44        2.07068  -0.00001  -0.00003  -0.00002  -0.00004   2.07064
   A45        2.10947   0.00001   0.00004   0.00001   0.00005   2.10952
   A46        2.10302   0.00000  -0.00001   0.00001  -0.00001   2.10302
   A47        2.14116  -0.00000   0.00002  -0.00004  -0.00002   2.14114
   A48        2.02631  -0.00001  -0.00003   0.00000  -0.00003   2.02628
   A49        2.11563   0.00001   0.00001   0.00004   0.00005   2.11568
   A50        2.14023  -0.00000   0.00005   0.00001   0.00005   2.14028
   A51        2.02853   0.00001   0.00003  -0.00003  -0.00000   2.02853
   A52        2.11433  -0.00001  -0.00007   0.00002  -0.00005   2.11427
   A53        1.77262   0.00000   0.00001  -0.00000   0.00000   1.77263
   A54        1.77699   0.00000   0.00005  -0.00002   0.00003   1.77701
   A55        2.05419  -0.00000  -0.00000  -0.00002  -0.00002   2.05417
   A56        2.15565   0.00002  -0.00001   0.00007   0.00006   2.15572
   A57        2.07326  -0.00002   0.00001  -0.00005  -0.00004   2.07322
   A58        2.10427  -0.00002  -0.00013  -0.00004  -0.00017   2.10409
   A59        2.10365   0.00002   0.00017   0.00004   0.00020   2.10386
   A60        2.07517  -0.00000  -0.00004   0.00001  -0.00003   2.07514
   A61        2.10592  -0.00000   0.00002   0.00000   0.00002   2.10594
   A62        2.07948  -0.00000  -0.00000  -0.00001  -0.00001   2.07947
   A63        2.09753   0.00000  -0.00002   0.00001  -0.00001   2.09752
   A64        2.09970   0.00000   0.00001  -0.00002  -0.00000   2.09969
   A65        2.09334   0.00000  -0.00001   0.00000  -0.00000   2.09334
   A66        2.08999  -0.00000  -0.00001   0.00001   0.00000   2.08999
   A67        2.09058   0.00000  -0.00002   0.00001  -0.00001   2.09057
   A68        2.10294  -0.00000  -0.00001  -0.00000  -0.00001   2.10294
   A69        2.08959   0.00000   0.00003  -0.00001   0.00002   2.08961
   A70        2.07998   0.00000   0.00002  -0.00001   0.00001   2.08000
   A71        2.10754  -0.00000  -0.00004   0.00002  -0.00003   2.10751
   A72        2.09452  -0.00000   0.00002  -0.00001   0.00001   2.09454
   A73        2.09071   0.00000   0.00004  -0.00004   0.00001   2.09072
   A74        2.09130  -0.00000  -0.00005   0.00003  -0.00002   2.09127
   A75        2.09906   0.00000   0.00001   0.00000   0.00001   2.09907
   A76        2.08557  -0.00001  -0.00006   0.00006   0.00000   2.08557
   A77        2.09725   0.00001   0.00006  -0.00006  -0.00001   2.09724
   A78        2.09809   0.00000  -0.00000   0.00001   0.00001   2.09810
   A79        2.11174   0.00000  -0.00003  -0.00001  -0.00004   2.11170
   A80        2.07327  -0.00000   0.00001   0.00003   0.00005   2.07332
   A81        2.09714   0.00000   0.00001  -0.00002  -0.00001   2.09713
   A82        2.08963  -0.00000  -0.00001   0.00001  -0.00000   2.08963
   A83        2.08975   0.00000   0.00002  -0.00001   0.00001   2.08975
   A84        2.10375  -0.00000  -0.00000  -0.00000  -0.00001   2.10374
   A85        2.09795  -0.00000   0.00000   0.00001   0.00001   2.09796
   A86        2.09111  -0.00000  -0.00001  -0.00000  -0.00001   2.09110
   A87        2.09386   0.00000   0.00001  -0.00000   0.00000   2.09387
   A88        2.11082  -0.00000   0.00001  -0.00003  -0.00003   2.11079
   A89        2.09509   0.00000  -0.00002   0.00004   0.00002   2.09511
   A90        2.07686   0.00000   0.00001   0.00000   0.00001   2.07687
   A91        2.07086   0.00000  -0.00002   0.00004   0.00002   2.07088
   A92        2.12819   0.00001   0.00010  -0.00018  -0.00008   2.12810
   A93        2.08388  -0.00001  -0.00009   0.00015   0.00006   2.08394
   A94        2.15083   0.00003   0.00007   0.00007   0.00014   2.15097
   A95        2.05150   0.00000   0.00001   0.00003   0.00005   2.05155
   A96        2.08005  -0.00003  -0.00009  -0.00009  -0.00018   2.07987
   A97        2.16972   0.00001   0.00004  -0.00003   0.00001   2.16973
   A98        2.04806  -0.00000  -0.00003   0.00002  -0.00001   2.04806
   A99        2.06529  -0.00000  -0.00001   0.00001  -0.00001   2.06528
   A100       2.10003   0.00000  -0.00001   0.00000  -0.00000   2.10003
   A101       2.09293  -0.00000  -0.00004   0.00003  -0.00001   2.09292
   A102       2.09022   0.00000   0.00005  -0.00004   0.00001   2.09023
   A103       2.09748   0.00001   0.00003  -0.00000   0.00003   2.09751
   A104       2.08882   0.00000  -0.00001   0.00004   0.00003   2.08885
   A105       2.09680  -0.00001  -0.00003  -0.00004  -0.00006   2.09673
   A106       2.34805  -0.00001   0.00108  -0.00130  -0.00022   2.34783
   A107       3.19074  -0.00001   0.00008  -0.00024  -0.00017   3.19057
   A108       3.19384  -0.00000  -0.00016   0.00025   0.00009   3.19393
   A109       3.03939  -0.00001   0.00008  -0.00001   0.00007   3.03946
   A110       3.13494  -0.00002  -0.00038  -0.00002  -0.00041   3.13454
   A111       3.13212  -0.00002   0.00001  -0.00020  -0.00018   3.13194
   A112       3.19228   0.00001   0.00016   0.00004   0.00019   3.19247
   A113       3.14393   0.00005  -0.00021  -0.00005  -0.00027   3.14367
   A114       3.20212   0.00001   0.00004   0.00003   0.00006   3.20218
   A115       3.08054   0.00001   0.00028  -0.00024   0.00005   3.08059
   A116       3.05188   0.00001   0.00046  -0.00051  -0.00007   3.05182
   A117       3.14227  -0.00000   0.00017  -0.00046  -0.00029   3.14198
   A118       3.14002   0.00002   0.00046  -0.00039   0.00007   3.14009
   A119       3.11183  -0.00003  -0.00029   0.00017  -0.00012   3.11172
   A120       3.13457   0.00004   0.00034  -0.00065  -0.00031   3.13426
    D1        1.98482   0.00000  -0.00000   0.00059   0.00059   1.98541
    D2       -1.19458   0.00000  -0.00030   0.00150   0.00120  -1.19337
    D3        0.40574  -0.00001  -0.00016   0.00087   0.00070   0.40644
    D4       -2.77366  -0.00001  -0.00046   0.00178   0.00131  -2.77235
    D5       -1.21465   0.00001   0.00028   0.00037   0.00065  -1.21400
    D6        1.88913   0.00001  -0.00002   0.00128   0.00126   1.89040
    D7       -2.82001  -0.00000   0.00028   0.00033   0.00061  -2.81939
    D8        0.28377  -0.00000  -0.00002   0.00124   0.00123   0.28500
    D9        1.04938  -0.00001  -0.00017   0.00143   0.00126   1.05063
   D10       -2.08222  -0.00001  -0.00039   0.00058   0.00019  -2.08203
   D11        2.61871   0.00000  -0.00005   0.00146   0.00142   2.62013
   D12       -0.51289  -0.00000  -0.00027   0.00062   0.00035  -0.51254
   D13       -2.03470   0.00000  -0.00013   0.00146   0.00133  -2.03337
   D14        1.11689  -0.00000  -0.00035   0.00061   0.00026   1.11715
   D15       -0.42126   0.00001  -0.00010   0.00145   0.00134  -0.41991
   D16        2.73033   0.00001  -0.00032   0.00060   0.00027   2.73061
   D17       -1.65904  -0.00003  -0.00240   0.00077  -0.00163  -1.66067
   D18        2.99848  -0.00003  -0.00237   0.00075  -0.00163   2.99686
   D19        1.42776  -0.00002  -0.00246   0.00100  -0.00146   1.42630
   D20       -0.08478  -0.00003  -0.00257   0.00103  -0.00154  -0.08632
   D21        3.04573  -0.00000  -0.00047   0.00117   0.00070   3.04643
   D22       -0.09790   0.00000  -0.00028   0.00088   0.00060  -0.09730
   D23       -0.06001  -0.00000  -0.00019   0.00031   0.00012  -0.05989
   D24        3.07955   0.00000  -0.00000   0.00002   0.00002   3.07957
   D25       -3.08586   0.00000   0.00048  -0.00100  -0.00053  -3.08639
   D26        0.04199  -0.00000   0.00034  -0.00091  -0.00057   0.04142
   D27        0.01889   0.00000   0.00019  -0.00012   0.00007   0.01896
   D28       -3.13645  -0.00000   0.00006  -0.00003   0.00003  -3.13643
   D29       -0.01351  -0.00000   0.00002   0.00005   0.00006  -0.01344
   D30        3.13750  -0.00000   0.00004  -0.00005  -0.00001   3.13750
   D31        3.10870  -0.00000  -0.00006   0.00018   0.00012   3.10883
   D32       -0.02347  -0.00000  -0.00003   0.00009   0.00006  -0.02342
   D33        0.02185   0.00000  -0.00009  -0.00007  -0.00016   0.02169
   D34       -3.10531   0.00000   0.00005  -0.00016  -0.00011  -3.10542
   D35       -3.13878  -0.00000  -0.00016   0.00006  -0.00010  -3.13887
   D36        0.01725   0.00000  -0.00002  -0.00003  -0.00005   0.01720
   D37       -0.01331   0.00000   0.00004   0.00008   0.00012  -0.01319
   D38        3.11395   0.00000   0.00012   0.00040   0.00052   3.11447
   D39        3.13766   0.00000   0.00007  -0.00002   0.00005   3.13771
   D40       -0.01827   0.00000   0.00015   0.00030   0.00045  -0.01782
   D41        0.05770  -0.00000   0.00008  -0.00029  -0.00022   0.05749
   D42       -3.07025  -0.00000  -0.00000  -0.00060  -0.00060  -3.07085
   D43       -3.08184  -0.00000  -0.00011  -0.00000  -0.00011  -3.08196
   D44        0.07339  -0.00000  -0.00019  -0.00031  -0.00050   0.07289
   D45        2.65093   0.00001  -0.00053   0.00075   0.00022   2.65115
   D46       -0.47121  -0.00002  -0.00100   0.00115   0.00015  -0.47106
   D47       -0.56239  -0.00011   0.00364  -0.00301   0.00063  -0.56177
   D48       -3.12068  -0.00001  -0.00039   0.00015  -0.00023  -3.12091
   D49        0.01592  -0.00001  -0.00022   0.00010  -0.00012   0.01581
   D50        0.00375   0.00000  -0.00001   0.00002   0.00001   0.00376
   D51        3.14035   0.00001   0.00016  -0.00003   0.00013   3.14048
   D52        0.01080   0.00000   0.00020  -0.00008   0.00012   0.01092
   D53        3.11963   0.00001   0.00048  -0.00018   0.00030   3.11993
   D54       -3.11364  -0.00001  -0.00018   0.00005  -0.00013  -3.11377
   D55       -0.00482   0.00000   0.00010  -0.00004   0.00006  -0.00476
   D56        3.13914   0.00000   0.00004  -0.00002   0.00002   3.13916
   D57        0.00003  -0.00000  -0.00008  -0.00001  -0.00010  -0.00007
   D58        0.00257  -0.00000  -0.00013   0.00003  -0.00010   0.00247
   D59       -3.13654  -0.00001  -0.00025   0.00004  -0.00021  -3.13675
   D60       -0.00272   0.00000   0.00008   0.00003   0.00011  -0.00260
   D61        3.13436   0.00001   0.00015   0.00002   0.00018   3.13453
   D62        3.14137  -0.00000  -0.00004   0.00004  -0.00000   3.14137
   D63       -0.00474   0.00000   0.00003   0.00003   0.00006  -0.00468
   D64        0.00211  -0.00000  -0.00010   0.00006  -0.00004   0.00207
   D65       -3.12526  -0.00001  -0.00011   0.00002  -0.00009  -3.12534
   D66        3.11047   0.00000   0.00018  -0.00004   0.00014   3.11062
   D67       -0.01690   0.00000   0.00017  -0.00008   0.00010  -0.01680
   D68       -3.13578  -0.00001  -0.00013  -0.00120  -0.00132  -3.13710
   D69        0.02088  -0.00001  -0.00031  -0.00104  -0.00134   0.01954
   D70       -0.00393  -0.00000   0.00009  -0.00037  -0.00028  -0.00421
   D71       -3.13046  -0.00000  -0.00009  -0.00021  -0.00030  -3.13075
   D72       -3.11122   0.00001   0.00007   0.00114   0.00121  -3.11001
   D73        0.04644   0.00001   0.00018   0.00112   0.00130   0.04773
   D74        0.03987   0.00000  -0.00014   0.00034   0.00020   0.04006
   D75       -3.08566   0.00000  -0.00003   0.00031   0.00028  -3.08538
   D76        3.13976   0.00000  -0.00000   0.00006   0.00005   3.13981
   D77        0.00217   0.00000   0.00019  -0.00015   0.00004   0.00221
   D78        0.02225   0.00000  -0.00012   0.00022   0.00011   0.02236
   D79       -3.11534   0.00000   0.00008   0.00002   0.00009  -3.11524
   D80       -0.02658   0.00000   0.00003   0.00010   0.00013  -0.02644
   D81        3.09922   0.00000   0.00022  -0.00007   0.00015   3.09937
   D82        3.13867  -0.00000  -0.00008   0.00026   0.00018   3.13885
   D83       -0.01872   0.00000   0.00011   0.00009   0.00020  -0.01851
   D84        3.10828  -0.00001  -0.00015   0.00012  -0.00004   3.10824
   D85        0.01008  -0.00000   0.00007  -0.00026  -0.00018   0.00989
   D86       -0.03730  -0.00000  -0.00034   0.00032  -0.00002  -0.03732
   D87       -3.13550  -0.00000  -0.00012  -0.00005  -0.00017  -3.13568
   D88       -2.41169   0.00001   0.00014  -0.00009   0.00005  -2.41164
   D89        0.79962   0.00001   0.00020  -0.00009   0.00011   0.79973
   D90       -0.80597  -0.00001  -0.00020   0.00018  -0.00002  -0.80599
   D91        2.40795  -0.00001  -0.00006   0.00003  -0.00003   2.40792
   D92        2.44997  -0.00000   0.00007  -0.00002   0.00004   2.45002
   D93       -0.74294  -0.00000   0.00005  -0.00000   0.00005  -0.74289
   D94        0.73557   0.00000  -0.00004   0.00010   0.00005   0.73562
   D95       -2.45470   0.00000  -0.00010   0.00015   0.00004  -2.45466
   D96        1.23327   0.00000   0.00030  -0.00129  -0.00098   1.23229
   D97       -1.92320  -0.00000   0.00013  -0.00132  -0.00119  -1.92439
   D98       -1.92280   0.00000   0.00039  -0.00096  -0.00058  -1.92338
   D99        1.20391  -0.00000   0.00021  -0.00099  -0.00079   1.20313
   D100       3.08772  -0.00000  -0.00022  -0.00006  -0.00028   3.08744
   D101      -0.02981  -0.00000  -0.00020  -0.00004  -0.00024  -0.03004
   D102      -0.03924   0.00000  -0.00005  -0.00003  -0.00008  -0.03931
   D103       3.12642  -0.00000  -0.00002  -0.00001  -0.00003   3.12639
   D104       0.12925   0.00000   0.00035   0.00003   0.00039   0.12964
   D105      -3.08237   0.00000   0.00029   0.00004   0.00033  -3.08204
   D106      -3.02697  -0.00000   0.00018   0.00000   0.00018  -3.02679
   D107       0.04459  -0.00000   0.00011   0.00001   0.00012   0.04471
   D108      -0.00314  -0.00000  -0.00004   0.00001  -0.00002  -0.00316
   D109      -3.12542  -0.00000  -0.00005   0.00004  -0.00001  -3.12542
   D110       3.11414   0.00000  -0.00006  -0.00001  -0.00007   3.11407
   D111      -0.00814  -0.00000  -0.00007   0.00002  -0.00005  -0.00819
   D112       0.04056  -0.00000   0.00006   0.00002   0.00008   0.04065
   D113      -3.11360   0.00000   0.00011  -0.00000   0.00010  -3.11350
   D114      -3.12030   0.00000   0.00007  -0.00000   0.00007  -3.12024
   D115       0.00871   0.00000   0.00011  -0.00003   0.00009   0.00880
   D116       3.05573   0.00000  -0.00002  -0.00003  -0.00004   3.05569
   D117      -0.03494   0.00000   0.00000  -0.00004  -0.00004  -0.03498
   D118      -0.07339   0.00000  -0.00006   0.00000  -0.00006  -0.07344
   D119       3.11914  -0.00000  -0.00004  -0.00002  -0.00006   3.11908
   D120      -0.02615  -0.00000  -0.00014   0.00001  -0.00013  -0.02627
   D121      -3.09769  -0.00000  -0.00007   0.00001  -0.00006  -3.09775
   D122       3.06370   0.00000  -0.00015   0.00003  -0.00012   3.06358
   D123      -0.00784  -0.00000  -0.00009   0.00003  -0.00006  -0.00790
   D124       0.04055   0.00000   0.00013  -0.00019  -0.00005   0.04049
   D125      -3.05170  -0.00000   0.00019  -0.00024  -0.00004  -3.05175
   D126       3.10977   0.00000  -0.00000  -0.00003  -0.00004   3.10973
   D127       0.01752   0.00000   0.00006  -0.00009  -0.00003   0.01749
   D128       3.01308   0.00000  -0.00025   0.00027   0.00002   3.01309
   D129      -0.15318  -0.00000  -0.00050   0.00034  -0.00017  -0.15335
   D130      -0.05566  -0.00000  -0.00011   0.00011   0.00000  -0.05566
   D131       3.06127  -0.00001  -0.00036   0.00018  -0.00018   3.06109
   D132      -3.05931  -0.00000   0.00009  -0.00005   0.00004  -3.05927
   D133       0.07030  -0.00000   0.00012  -0.00005   0.00007   0.07037
   D134       0.03402  -0.00000   0.00003   0.00000   0.00003   0.03405
   D135      -3.11955   0.00000   0.00006   0.00000   0.00006  -3.11949
   D136      -0.04663  -0.00000  -0.00006   0.00005  -0.00001  -0.04663
   D137       3.11968   0.00000  -0.00004   0.00002  -0.00003   3.11965
   D138       3.10704  -0.00000  -0.00008   0.00005  -0.00003   3.10701
   D139      -0.00984  -0.00000  -0.00007   0.00002  -0.00005  -0.00989
   D140       0.00755   0.00000   0.00000  -0.00002  -0.00002   0.00753
   D141      -3.10311   0.00000   0.00004  -0.00008  -0.00004  -3.10315
   D142       3.12439   0.00000  -0.00001   0.00001   0.00000   3.12439
   D143       0.01373   0.00000   0.00003  -0.00005  -0.00002   0.01371
   D144       0.04341  -0.00000   0.00008  -0.00006   0.00002   0.04343
   D145      -3.07416   0.00000   0.00032  -0.00012   0.00020  -3.07396
   D146      -3.12880  -0.00000   0.00004  -0.00000   0.00004  -3.12876
   D147       0.03682   0.00000   0.00029  -0.00006   0.00022   0.03704
   D148       2.10257   0.00001   0.00048  -0.00168  -0.00120   2.10137
   D149      -1.08308   0.00001   0.00026  -0.00130  -0.00105  -1.08413
   D150      -1.06386   0.00000   0.00023  -0.00162  -0.00139  -1.06525
   D151       2.03367   0.00000   0.00000  -0.00123  -0.00123   2.03243
   D152      -0.04313   0.00000   0.00006  -0.00003   0.00003  -0.04309
   D153       3.08225  -0.00000  -0.00006   0.00000  -0.00005   3.08220
   D154       3.14003   0.00000   0.00027  -0.00039  -0.00012   3.13991
   D155      -0.01778   0.00000   0.00016  -0.00036  -0.00020  -0.01798
   D156       0.00164   0.00000   0.00001  -0.00006  -0.00004   0.00159
   D157       3.12894   0.00000   0.00002  -0.00002   0.00000   3.12894
   D158      -3.13545  -0.00000  -0.00006  -0.00005  -0.00011  -3.13555
   D159      -0.00814  -0.00000  -0.00005  -0.00001  -0.00006  -0.00820
         Item               Value     Threshold  Converged?
 Maximum Force            0.000176     0.000450     YES
 RMS     Force            0.000017     0.000300     YES
 Maximum Displacement     0.006175     0.001800     NO 
 RMS     Displacement     0.001271     0.001200     NO 
 Predicted change in Energy=-1.590704D-08
 GradGradGradGradGradGradGradGradGradGradGradGradGradGradGradGradGradGrad

 Stoichiometry    C32H19BrMnN3O3S2
 Framework group  C1[X(C32H19BrMnN3O3S2)]
 Deg. of freedom   177
 Full point group                 C1      NOp   1
 Largest Abelian subgroup         C1      NOp   1
 Largest concise Abelian subgroup C1      NOp   1
                         Standard orientation:                         
 ---------------------------------------------------------------------
 Center     Atomic      Atomic             Coordinates (Angstroms)
 Number     Number       Type             X           Y           Z
 ---------------------------------------------------------------------
      1         25           0       -2.074532   -1.588114   -1.061821
      2          6           0       -3.083010   -1.321893   -2.553275
      3          8           0       -3.715252   -1.146659   -3.490212
      4          6           0       -2.846705   -3.202669   -0.727780
      5          8           0       -3.329489   -4.215845   -0.507069
      6          6           0       -0.813547   -2.381643   -2.059799
      7          7           0       -0.923105   -1.751622    0.763593
      8          6           0       -0.743336   -1.737719    3.154579
      9          6           0        0.645589   -1.812435    3.081890
     10          6           0        0.406841   -1.870843    0.707216
     11          1           0       -1.256663   -1.692445    4.115257
     12          1           0        1.256587   -1.814979    3.986882
     13          7           0       -5.235492    3.234543    1.581310
     14          6           0       -4.081752    3.204981    1.675282
     15          6           0       -2.647316    3.173200    1.784117
     16          6           0       -1.914833    4.365210    1.689984
     17          6           0       -0.526329    4.323037    1.771428
     18          6           0       -1.991794    1.946767    1.963367
     19          1           0       -2.434252    5.314535    1.549468
     20          1           0       -2.575084    1.025833    2.008460
     21          7           0       -1.188791    0.368675   -1.292323
     22          6           0       -1.351797    2.755377   -1.431901
     23          6           0        0.026907    2.871779   -1.575472
     24          1           0       -1.993790    3.636098   -1.415072
     25          6           0       -1.486691   -1.697233    1.981899
     26          1           0       -2.573440   -1.604971    2.004223
     27          6           0       -1.917528    1.496457   -1.278796
     28          1           0       -2.990690    1.375169   -1.124942
     29          1           0        0.048743    5.247653    1.696465
     30          8           0       -0.053765   -2.920777   -2.734109
     31         16           0        2.533898    0.705673    0.788109
     32         16           0        5.658119    0.502947    0.163088
     33          6           0        1.243635   -1.872833    1.823925
     34          6           0        2.718656   -1.921447    1.615435
     35          6           0        3.446482   -3.066909    1.950962
     36          6           0        4.814743   -3.138924    1.697716
     37          6           0        5.476168   -2.068547    1.101692
     38          6           0        4.773463   -0.899184    0.801072
     39          6           0        3.399250   -0.821402    1.060606
     40          1           0        2.924921   -3.917278    2.394900
     41          1           0        5.368535   -4.044659    1.950613
     42          1           0        6.542904   -2.131746    0.878010
     43          6           0        3.152211    1.185750   -0.807650
     44          6           0        4.528834    1.118483   -1.063187
     45          6           0        5.042009    1.592612   -2.272717
     46          6           0        4.186315    2.169434   -3.206698
     47          6           0        2.816460    2.224033   -2.961998
     48          6           0        2.276342    1.712133   -1.776913
     49          1           0        6.112621    1.517914   -2.473097
     50          1           0        4.588737    2.558920   -4.143365
     51          1           0        2.143481    2.644574   -3.712100
     52          6           0        0.798361    1.709479   -1.587937
     53          1           0        0.499337    3.851544   -1.672873
     54          6           0        0.130775    0.490889   -1.466467
     55          1           0        0.713653   -0.426170   -1.531132
     56          1           0        0.860508   -1.974791   -0.277711
     57          6           0        0.127753    3.102776    1.945409
     58          6           0       -0.603886    1.919008    2.041902
     59          1           0       -0.088606    0.965045    2.166089
     60          1           0        1.217961    3.072429    2.002310
     61         35           0       -4.153379   -0.606257    0.198277
 ---------------------------------------------------------------------
 Rotational constants (GHZ):           0.0998021           0.0572465           0.0506254
 Basis read from rwf:  (5D, 7F)
 There are   800 symmetry adapted cartesian basis functions of A   symmetry.
 There are   749 symmetry adapted basis functions of A   symmetry.
   749 basis functions,  1349 primitive gaussians,   800 cartesian basis functions
   174 alpha electrons      174 beta electrons
       nuclear repulsion energy      6844.6735720681 Hartrees.
 NAtoms=   61 NActive=   61 NUniq=   61 SFac= 1.00D+00 NAtFMM=   60 NAOKFM=T Big=T
 Integral buffers will be    131072 words long.
 Raffenetti 2 integral format.
 Two-electron integral symmetry is turned on.
 Nuclear repulsion after empirical dispersion term =     6844.6025734124 Hartrees.
 ------------------------------------------------------------------------------
 Polarizable Continuum Model (PCM)
 =================================
 Model                : PCM.
 Atomic radii         : UFF (Universal Force Field).
 Polarization charges : Total charges.
 Charge compensation  : None.
 Solution method      : On-the-fly selection.
 Cavity type          : Scaled VdW (van der Waals Surface) (Alpha=1.100).
 Cavity algorithm     : GePol (No added spheres)
                        Default sphere list used, NSphG=   61.
                        Lebedev-Laikov grids with approx.  5.0 points / Ang**2.
                        Smoothing algorithm: York/Karplus (Gamma=1.0000).
                        Polarization charges: spherical gaussians, with
                                              point-specific exponents (IZeta= 3).
                        Self-potential: point-specific (ISelfS= 7).
                        Self-field    : sphere-specific E.n sum rule (ISelfD= 2).
 1st derivatives      : Analytical E(r).r(x)/FMM algorithm (CHGder, D1EAlg=3).
                        Cavity 1st derivative terms included.
 Solvent              : TetraHydroFuran, Eps=   7.425700 Eps(inf)=   1.974025
 ------------------------------------------------------------------------------
 One-electron integrals computed using PRISM.
 PrsmSu:  requested number of processors reduced to:  11 ShMem   1 Linda.
 NBasis=   749 RedAO= T EigKep=  2.25D-04  NBF=   749
 NBsUse=   749 1.00D-06 EigRej= -1.00D+00 NBFU=   749
 Initial guess from the checkpoint file:  "checkpoint.chk"
 B after Tr=     0.000000   -0.000000    0.000000
         Rot=    1.000000    0.000308   -0.000015    0.000145 Ang=   0.04 deg.
 Requested convergence on RMS density matrix=1.00D-08 within 128 cycles.
 Requested convergence on MAX density matrix=1.00D-06.
 Requested convergence on             energy=1.00D-06.
 No special actions if energy rises.
 CoulSu:  requested number of processors reduced to:  11 ShMem   1 Linda.
 Inv3:  Mode=1 IEnd=    63397227.
 Iteration    1 A*A^-1 deviation from unit magnitude is 4.22D-15 for   1651.
 Iteration    1 A*A^-1 deviation from orthogonality  is 2.22D-15 for   3197    300.
 Iteration    1 A^-1*A deviation from unit magnitude is 3.77D-15 for   1651.
 Iteration    1 A^-1*A deviation from orthogonality  is 2.22D-15 for   4039   1220.
 CoulSu:  requested number of processors reduced to:  11 ShMem   1 Linda.
 CoulSu:  requested number of processors reduced to:  11 ShMem   1 Linda.
 Error on total polarization charges =  0.01645
 SCF Done:  E(RwB97XD) =  -6140.26527714     A.U. after   10 cycles
            NFock= 10  Conv=0.58D-08     -V/T= 2.0038
 PrsmSu:  requested number of processors reduced to:  11 ShMem   1 Linda.
 D1PCM: PCM CHGder 1st derivatives, ID1Alg=3 FixD1E=F DoIter=F DoCFld=F I1PDM=0.
 CoulSu:  requested number of processors reduced to:  10 ShMem   1 Linda.
 CoulSu:  requested number of processors reduced to:  10 ShMem   1 Linda.
 Calling FoFJK, ICntrl=      2127 FMM=T ISym2X=0 I1Cent= 0 IOpClX= 0 NMat=1 NMatS=1 NMatT=0.
 ***** Axes restored to original set *****
 -------------------------------------------------------------------
 Center     Atomic                   Forces (Hartrees/Bohr)
 Number     Number              X              Y              Z
 -------------------------------------------------------------------
      1       25           0.000020218    0.000028157   -0.000017347
      2        6          -0.000026171   -0.000039652    0.000004535
      3        8           0.000012114    0.000027673   -0.000004297
      4        6           0.000037238    0.000028159   -0.000002266
      5        8          -0.000025736   -0.000005085    0.000004344
      6        6          -0.000010699   -0.000034921    0.000041922
      7        7           0.000005281    0.000007745    0.000006281
      8        6          -0.000004731    0.000002407   -0.000004097
      9        6           0.000002705    0.000004802    0.000001104
     10        6          -0.000006174    0.000002043   -0.000002250
     11        1           0.000000261    0.000000457   -0.000001093
     12        1          -0.000001464   -0.000000295    0.000002980
     13        7          -0.000081741    0.000016535   -0.000058945
     14        6           0.000088577   -0.000049283    0.000053123
     15        6          -0.000032844    0.000034022   -0.000035919
     16        6           0.000023793   -0.000000534   -0.000005002
     17        6          -0.000009357    0.000005576   -0.000002439
     18        6          -0.000006372   -0.000004085    0.000003167
     19        1           0.000004154   -0.000002305    0.000001096
     20        1           0.000009301    0.000000618   -0.000005880
     21        7          -0.000011842   -0.000013356   -0.000006102
     22        6          -0.000003091    0.000003669   -0.000006046
     23        6           0.000004131   -0.000004592    0.000003023
     24        1           0.000004832   -0.000005876   -0.000008736
     25        6          -0.000005211   -0.000003968   -0.000001892
     26        1           0.000002346   -0.000006387    0.000007461
     27        6           0.000008616    0.000008007   -0.000011883
     28        1           0.000005420    0.000000952    0.000007412
     29        1           0.000004765   -0.000004191    0.000000919
     30        8           0.000002353    0.000016256   -0.000009983
     31       16          -0.000002980    0.000004252   -0.000005341
     32       16           0.000000342   -0.000003472    0.000000027
     33        6           0.000005529    0.000007101    0.000001453
     34        6          -0.000012926   -0.000011612    0.000004530
     35        6           0.000000293    0.000000558   -0.000003924
     36        6          -0.000000388    0.000000154    0.000001903
     37        6          -0.000003853   -0.000001341    0.000007099
     38        6          -0.000005796    0.000000064    0.000005570
     39        6           0.000002164    0.000007357   -0.000007153
     40        1          -0.000002218    0.000001816    0.000002947
     41        1          -0.000004196    0.000001839    0.000003646
     42        1          -0.000002017    0.000001653    0.000002896
     43        6           0.000001162   -0.000018924    0.000005535
     44        6          -0.000001755    0.000003418    0.000001543
     45        6          -0.000002889    0.000005826    0.000000622
     46        6           0.000004809   -0.000004066    0.000001824
     47        6          -0.000001940   -0.000007409   -0.000000536
     48        6           0.000002418    0.000017479   -0.000008721
     49        1          -0.000000067   -0.000001775    0.000001870
     50        1          -0.000000328   -0.000000337    0.000002069
     51        1           0.000001405   -0.000000472   -0.000000050
     52        6           0.000005800   -0.000001818    0.000000591
     53        1           0.000001637    0.000000738   -0.000000819
     54        6          -0.000012478   -0.000005028    0.000006894
     55        1           0.000001869    0.000002566   -0.000003000
     56        1          -0.000007910    0.000004148    0.000001735
     57        6           0.000002231   -0.000017085    0.000017283
     58        6           0.000015144   -0.000004613    0.000007078
     59        1          -0.000004555    0.000002089    0.000002574
     60        1           0.000009559   -0.000001418    0.000007930
     61       35           0.000001264    0.000005766   -0.000011265
 -------------------------------------------------------------------
 Cartesian Forces:  Max     0.000088577 RMS     0.000015476

 GradGradGradGradGradGradGradGradGradGradGradGradGradGradGradGradGradGrad
 Berny optimization.
 Using GEDIIS/GDIIS optimizer.
 FormGI is forming the generalized inverse of G from B-inverse, IUseBI=4.
 Internal  Forces:  Max     0.000159102 RMS     0.000016714
 Search for a local minimum.
 Step number  48 out of a maximum of  356
 All quantities printed in internal units (Hartrees-Bohrs-Radians)
 Mixed Optimization -- En-DIIS/RFO-DIIS
 Swapping is turned off.
 Update second derivatives using D2CorX and points   30   31   32   33   34
                                                     35   36   37   38   39
                                                     40   41   42   43   44
                                                     45   46   47   48
 DE=  6.18D-08 DEPred=-1.59D-08 R=-3.88D+00
 Trust test=-3.88D+00 RLast= 7.50D-03 DXMaxT set to 8.64D-02
 ITU= -1  0  1  1  1  1 -1 -1  1  1  1  1  1  1  1  1  1 -1  1  1
 ITU=  1  1  0  1  1 -1 -1  1  1  1  1  1  1  1 -1 -1  1  1  1  1
 ITU=  1  0  1  0  0  0  1  0
     Eigenvalues ---    0.00245   0.00299   0.00431   0.00974   0.01063
     Eigenvalues ---    0.01449   0.01545   0.01638   0.01681   0.01703
     Eigenvalues ---    0.01803   0.01826   0.01883   0.01903   0.01931
     Eigenvalues ---    0.01941   0.01960   0.02004   0.02059   0.02089
     Eigenvalues ---    0.02132   0.02138   0.02147   0.02150   0.02158
     Eigenvalues ---    0.02165   0.02167   0.02173   0.02176   0.02177
     Eigenvalues ---    0.02180   0.02186   0.02196   0.02197   0.02200
     Eigenvalues ---    0.02210   0.02227   0.02240   0.02251   0.02287
     Eigenvalues ---    0.02309   0.02338   0.02373   0.02418   0.02717
     Eigenvalues ---    0.02846   0.03107   0.03683   0.04040   0.04203
     Eigenvalues ---    0.05012   0.05390   0.05873   0.06121   0.06639
     Eigenvalues ---    0.07268   0.07896   0.08534   0.09207   0.09873
     Eigenvalues ---    0.10540   0.10654   0.10926   0.11826   0.12898
     Eigenvalues ---    0.13419   0.15352   0.15498   0.15716   0.15947
     Eigenvalues ---    0.15986   0.15993   0.15994   0.15996   0.15997
     Eigenvalues ---    0.15999   0.15999   0.15999   0.16002   0.16005
     Eigenvalues ---    0.16012   0.16035   0.16048   0.16077   0.16110
     Eigenvalues ---    0.16265   0.16420   0.16925   0.17839   0.19395
     Eigenvalues ---    0.20783   0.20924   0.21357   0.21472   0.22070
     Eigenvalues ---    0.22095   0.22107   0.22160   0.22201   0.22536
     Eigenvalues ---    0.22762   0.22953   0.23364   0.23444   0.23533
     Eigenvalues ---    0.23690   0.23701   0.23852   0.24165   0.24461
     Eigenvalues ---    0.24746   0.24943   0.25341   0.25673   0.26731
     Eigenvalues ---    0.27008   0.27530   0.27953   0.33062   0.33588
     Eigenvalues ---    0.34348   0.34566   0.34574   0.34585   0.34594
     Eigenvalues ---    0.34614   0.34617   0.34647   0.34668   0.34671
     Eigenvalues ---    0.34674   0.34757   0.34784   0.34810   0.34828
     Eigenvalues ---    0.34909   0.35100   0.35286   0.35504   0.37425
     Eigenvalues ---    0.38450   0.40296   0.40768   0.41400   0.41717
     Eigenvalues ---    0.41826   0.42364   0.42459   0.43950   0.44238
     Eigenvalues ---    0.44337   0.44736   0.45281   0.45754   0.45899
     Eigenvalues ---    0.45936   0.46010   0.46192   0.46306   0.46473
     Eigenvalues ---    0.46781   0.46795   0.46863   0.46958   0.47362
     Eigenvalues ---    0.48923   0.49753   0.53852   0.54141   0.55499
     Eigenvalues ---    0.57006   1.34965   1.38197   1.41920   1.46772
     Eigenvalues ---    1.54321   2.90447
 En-DIIS/RFO-DIIS/Sim-DIIS IScMMF=       -3 using points:    48   47   46   45   44   43   42   41   40   39
 RFO step:  Lambda=-4.51039365D-07.
 DIIS inversion failure, remove point  10.
 DIIS inversion failure, remove point   9.
 RFO-DIIS uses    8 points instead of   10
 DidBck=F Rises=F RFO-DIIS coefs:    1.60336   -0.97490    0.23421    0.57006   -0.56214
                  RFO-DIIS coefs:    0.01706    0.09168    0.02068    0.00000    0.00000
 Iteration  1 RMS(Cart)=  0.00087629 RMS(Int)=  0.00000049
 Iteration  2 RMS(Cart)=  0.00000381 RMS(Int)=  0.00000012
 Iteration  3 RMS(Cart)=  0.00000000 RMS(Int)=  0.00000012
 Variable       Old X    -DE/DX   Delta X   Delta X   Delta X     New X
                                 (Linear)    (Quad)   (Total)
    R1        3.43927   0.00001   0.00007  -0.00006   0.00001   3.43928
    R2        3.44046   0.00001   0.00007  -0.00005   0.00003   3.44048
    R3        3.38874  -0.00002  -0.00010   0.00001  -0.00009   3.38865
    R4        4.09014  -0.00000  -0.00023   0.00013  -0.00011   4.09003
    R5        4.08229  -0.00000  -0.00013  -0.00007  -0.00021   4.08208
    R6        4.95436  -0.00001   0.00021  -0.00036  -0.00016   4.95421
    R7        2.16148  -0.00002  -0.00001   0.00001  -0.00000   2.16147
    R8        2.16150  -0.00002  -0.00002   0.00002  -0.00000   2.16150
    R9        2.17329   0.00000   0.00003  -0.00003  -0.00000   2.17329
   R10        2.52556   0.00001   0.00000  -0.00001  -0.00000   2.52555
   R11        2.53875  -0.00001  -0.00002   0.00000  -0.00002   2.53874
   R12        2.63207   0.00000   0.00001  -0.00001  -0.00000   2.63206
   R13        2.06011  -0.00000   0.00000  -0.00000   0.00000   2.06011
   R14        2.62488   0.00001   0.00001   0.00000   0.00001   2.62489
   R15        2.06347  -0.00000   0.00000  -0.00000  -0.00000   2.06347
   R16        2.63465   0.00000   0.00001  -0.00001   0.00000   2.63465
   R17        2.63701  -0.00001  -0.00001   0.00001  -0.00000   2.63701
   R18        2.05859   0.00000   0.00001  -0.00003  -0.00001   2.05857
   R19        2.18819  -0.00010  -0.00004  -0.00004  -0.00007   2.18811
   R20        7.98071  -0.00001  -0.00404  -0.00102  -0.00506   7.97564
   R21        2.71915   0.00001   0.00003  -0.00002   0.00001   2.71916
   R22        2.64985  -0.00002  -0.00002  -0.00004  -0.00005   2.64980
   R23        2.64965  -0.00002  -0.00004   0.00001  -0.00003   2.64962
   R24        2.62961  -0.00001  -0.00002   0.00002  -0.00000   2.62961
   R25        2.06211   0.00000  -0.00000   0.00001   0.00000   2.06211
   R26        2.06252  -0.00000  -0.00000  -0.00000  -0.00000   2.06252
   R27        2.63692  -0.00002   0.00000  -0.00004  -0.00004   2.63688
   R28        2.06178   0.00001  -0.00001   0.00003   0.00003   2.06180
   R29        2.62748  -0.00001   0.00000  -0.00001  -0.00001   2.62748
   R30        2.53754  -0.00001   0.00001  -0.00005  -0.00004   2.53750
   R31        2.52582   0.00000   0.00000   0.00002   0.00002   2.52584
   R32        2.62868   0.00000   0.00001  -0.00003  -0.00002   2.62866
   R33        2.05981  -0.00000   0.00000  -0.00001  -0.00001   2.05980
   R34        2.62418  -0.00000  -0.00001   0.00003   0.00002   2.62420
   R35        2.63631   0.00000  -0.00000   0.00001   0.00001   2.63632
   R36        2.06371  -0.00000  -0.00000   0.00000  -0.00000   2.06371
   R37        2.06148   0.00001   0.00002  -0.00001   0.00001   2.06149
   R38        2.06150   0.00001   0.00001  -0.00000   0.00001   2.06151
   R39        3.35662  -0.00001   0.00002   0.00000   0.00002   3.35664
   R40        3.35884   0.00000   0.00004  -0.00002   0.00001   3.35885
   R41        3.35692  -0.00000  -0.00001   0.00002   0.00000   3.35692
   R42        3.35814  -0.00000  -0.00001   0.00002   0.00001   3.35815
   R43        2.81659   0.00001  -0.00000   0.00001   0.00001   2.81660
   R44        2.64183   0.00000   0.00001  -0.00000   0.00000   2.64183
   R45        2.65985  -0.00001  -0.00006   0.00006   0.00000   2.65985
   R46        2.63307  -0.00000   0.00001  -0.00002  -0.00000   2.63307
   R47        2.06338   0.00000   0.00000  -0.00000   0.00000   2.06338
   R48        2.63102   0.00000   0.00000   0.00000   0.00000   2.63103
   R49        2.06231  -0.00000   0.00000  -0.00000   0.00000   2.06231
   R50        2.63993  -0.00000   0.00002  -0.00002  -0.00001   2.63992
   R51        2.06314  -0.00000   0.00000  -0.00000  -0.00000   2.06314
   R52        2.64688   0.00000  -0.00001   0.00001   0.00000   2.64688
   R53        2.64893   0.00000   0.00001   0.00001   0.00002   2.64895
   R54        2.66156  -0.00001  -0.00001   0.00001  -0.00000   2.66156
   R55        2.63961  -0.00000   0.00001  -0.00002  -0.00001   2.63960
   R56        2.63022   0.00000  -0.00000   0.00000   0.00000   2.63022
   R57        2.06313  -0.00000  -0.00000  -0.00000  -0.00000   2.06313
   R58        2.63165  -0.00000   0.00000  -0.00001  -0.00001   2.63164
   R59        2.06230  -0.00000   0.00000  -0.00000   0.00000   2.06230
   R60        2.64440   0.00001   0.00000   0.00000   0.00001   2.64441
   R61        2.06353  -0.00000  -0.00000  -0.00000  -0.00000   2.06353
   R62        2.81572   0.00001   0.00001   0.00001   0.00002   2.81574
   R63        2.63574  -0.00001   0.00000  -0.00003  -0.00003   2.63571
   R64        2.05705   0.00000   0.00002  -0.00001   0.00001   2.05706
   R65        2.63609   0.00001  -0.00001   0.00003   0.00003   2.63612
   R66        2.06380  -0.00001  -0.00001  -0.00000  -0.00002   2.06378
   R67        2.06230  -0.00000   0.00005  -0.00007  -0.00002   2.06228
    A1        1.61587   0.00002  -0.00005   0.00014   0.00009   1.61597
    A2        1.56911  -0.00001   0.00007  -0.00004   0.00003   1.56914
    A3        1.57805  -0.00001   0.00008  -0.00014  -0.00005   1.57800
    A4        1.47035  -0.00002   0.00001  -0.00006  -0.00005   1.47029
    A5        1.57872   0.00002   0.00000   0.00007   0.00008   1.57880
    A6        1.57469  -0.00002  -0.00002  -0.00004  -0.00005   1.57464
    A7        1.47830  -0.00003  -0.00026   0.00008  -0.00018   1.47812
    A8        1.63268  -0.00000  -0.00004   0.00016   0.00012   1.63280
    A9        1.62395  -0.00003   0.00012  -0.00024  -0.00012   1.62383
   A10        1.51106   0.00001  -0.00003   0.00003   0.00000   1.51106
   A11        1.61557   0.00003  -0.00003  -0.00005  -0.00008   1.61549
   A12        1.60797   0.00004   0.00014   0.00009   0.00023   1.60820
   A13        2.09503  -0.00000  -0.00003   0.00007   0.00005   2.09508
   A14        2.13956   0.00000   0.00001  -0.00006  -0.00006   2.13950
   A15        2.04803   0.00000   0.00002  -0.00001   0.00001   2.04804
   A16        2.11504  -0.00000   0.00001  -0.00002  -0.00000   2.11503
   A17        2.08422   0.00000   0.00001  -0.00001   0.00000   2.08423
   A18        2.08377  -0.00000  -0.00002   0.00002  -0.00000   2.08377
   A19        2.11163   0.00000   0.00001  -0.00002  -0.00001   2.11163
   A20        2.06822  -0.00000  -0.00001   0.00001  -0.00000   2.06822
   A21        2.10329   0.00000  -0.00000   0.00001   0.00001   2.10330
   A22        2.16893   0.00000  -0.00001   0.00000  -0.00000   2.16893
   A23        2.05000   0.00000  -0.00000   0.00003   0.00003   2.05003
   A24        2.06425  -0.00001   0.00001  -0.00003  -0.00002   2.06423
   A25        1.31611   0.00016   0.00079   0.00031   0.00110   1.31721
   A26        2.09081  -0.00007  -0.00013   0.00002  -0.00012   2.09069
   A27        2.08869   0.00005   0.00010  -0.00008   0.00002   2.08872
   A28        2.10356   0.00002   0.00002   0.00006   0.00008   2.10365
   A29        2.08465   0.00001   0.00000  -0.00001  -0.00001   2.08464
   A30        2.09386  -0.00000  -0.00003   0.00005   0.00002   2.09387
   A31        2.10466  -0.00000   0.00003  -0.00004  -0.00001   2.10466
   A32        2.08984   0.00001   0.00001  -0.00000   0.00001   2.08985
   A33        2.09616  -0.00002  -0.00002  -0.00002  -0.00004   2.09612
   A34        2.09718   0.00001   0.00001   0.00002   0.00003   2.09721
   A35        2.08708   0.00001  -0.00003   0.00005   0.00002   2.08710
   A36        2.08445  -0.00002  -0.00001  -0.00007  -0.00008   2.08437
   A37        2.11119   0.00001   0.00003   0.00003   0.00006   2.11125
   A38        2.13788   0.00001  -0.00005   0.00000  -0.00004   2.13784
   A39        2.09615  -0.00001   0.00003  -0.00000   0.00003   2.09617
   A40        2.04912   0.00000   0.00002   0.00000   0.00002   2.04914
   A41        2.11500  -0.00000   0.00001  -0.00001   0.00000   2.11501
   A42        2.08406   0.00001   0.00002   0.00002   0.00003   2.08409
   A43        2.08387  -0.00001  -0.00003  -0.00000  -0.00003   2.08384
   A44        2.07064  -0.00000  -0.00000  -0.00001  -0.00001   2.07063
   A45        2.10952   0.00000   0.00000   0.00001   0.00001   2.10954
   A46        2.10302   0.00000   0.00000  -0.00000  -0.00000   2.10302
   A47        2.14114  -0.00000  -0.00002   0.00001  -0.00001   2.14113
   A48        2.02628  -0.00000  -0.00001  -0.00002  -0.00002   2.02626
   A49        2.11568   0.00001   0.00002   0.00001   0.00003   2.11571
   A50        2.14028  -0.00001  -0.00002  -0.00002  -0.00004   2.14024
   A51        2.02853   0.00001   0.00003   0.00004   0.00007   2.02860
   A52        2.11427  -0.00000  -0.00001  -0.00002  -0.00003   2.11425
   A53        1.77263  -0.00000  -0.00003  -0.00000  -0.00004   1.77259
   A54        1.77701  -0.00000  -0.00001  -0.00001  -0.00003   1.77699
   A55        2.05417  -0.00000   0.00001  -0.00001   0.00000   2.05417
   A56        2.15572   0.00002   0.00003   0.00002   0.00005   2.15577
   A57        2.07322  -0.00002  -0.00004  -0.00002  -0.00005   2.07316
   A58        2.10409  -0.00001   0.00004  -0.00006  -0.00002   2.10407
   A59        2.10386   0.00001  -0.00006   0.00008   0.00001   2.10387
   A60        2.07514  -0.00000   0.00002  -0.00002   0.00000   2.07514
   A61        2.10594  -0.00000  -0.00001   0.00001  -0.00001   2.10594
   A62        2.07947  -0.00000  -0.00000   0.00000  -0.00000   2.07947
   A63        2.09752   0.00000   0.00002  -0.00001   0.00001   2.09753
   A64        2.09969   0.00000  -0.00001   0.00002   0.00001   2.09970
   A65        2.09334   0.00000   0.00001  -0.00001  -0.00000   2.09334
   A66        2.08999  -0.00000   0.00000  -0.00001  -0.00000   2.08999
   A67        2.09057  -0.00000   0.00000  -0.00000   0.00000   2.09057
   A68        2.10294  -0.00000  -0.00001   0.00000  -0.00001   2.10293
   A69        2.08961   0.00000   0.00000   0.00000   0.00001   2.08961
   A70        2.08000   0.00000   0.00001   0.00002   0.00002   2.08002
   A71        2.10751   0.00000   0.00000  -0.00002  -0.00002   2.10749
   A72        2.09454  -0.00000  -0.00001   0.00001  -0.00000   2.09454
   A73        2.09072  -0.00001  -0.00003   0.00004   0.00001   2.09072
   A74        2.09127   0.00000   0.00003  -0.00004  -0.00000   2.09127
   A75        2.09907   0.00000   0.00001  -0.00001   0.00000   2.09907
   A76        2.08557  -0.00001   0.00000  -0.00003  -0.00003   2.08555
   A77        2.09724   0.00000   0.00001   0.00002   0.00003   2.09727
   A78        2.09810   0.00000  -0.00000   0.00000  -0.00000   2.09810
   A79        2.11170   0.00000   0.00002  -0.00003  -0.00000   2.11170
   A80        2.07332  -0.00000  -0.00002   0.00002   0.00000   2.07332
   A81        2.09713   0.00000   0.00000   0.00000   0.00000   2.09714
   A82        2.08963  -0.00000  -0.00000  -0.00000  -0.00000   2.08962
   A83        2.08975   0.00000   0.00000   0.00000   0.00001   2.08976
   A84        2.10374  -0.00000  -0.00000   0.00000  -0.00000   2.10374
   A85        2.09796   0.00000  -0.00000   0.00000   0.00000   2.09796
   A86        2.09110  -0.00000  -0.00000  -0.00000  -0.00000   2.09110
   A87        2.09387   0.00000   0.00000  -0.00000   0.00000   2.09387
   A88        2.11079   0.00000   0.00000   0.00000   0.00001   2.11080
   A89        2.09511  -0.00000   0.00001  -0.00001   0.00000   2.09512
   A90        2.07687  -0.00000  -0.00001   0.00000  -0.00001   2.07686
   A91        2.07088  -0.00000   0.00000  -0.00001  -0.00001   2.07087
   A92        2.12810   0.00001   0.00001   0.00004   0.00006   2.12816
   A93        2.08394  -0.00001  -0.00001  -0.00004  -0.00005   2.08389
   A94        2.15097   0.00001   0.00000   0.00003   0.00003   2.15099
   A95        2.05155  -0.00000  -0.00000  -0.00001  -0.00001   2.05154
   A96        2.07987  -0.00001   0.00000  -0.00002  -0.00002   2.07985
   A97        2.16973   0.00001  -0.00001   0.00001   0.00000   2.16974
   A98        2.04806  -0.00001  -0.00001  -0.00001  -0.00003   2.04803
   A99        2.06528  -0.00000   0.00002   0.00001   0.00002   2.06531
   A100       2.10003   0.00001   0.00002   0.00001   0.00003   2.10006
   A101       2.09292  -0.00001   0.00003  -0.00005  -0.00003   2.09289
   A102       2.09023  -0.00000  -0.00004   0.00004  -0.00000   2.09023
   A103       2.09751   0.00000  -0.00001   0.00002   0.00001   2.09752
   A104       2.08885   0.00000   0.00003  -0.00005  -0.00001   2.08884
   A105       2.09673  -0.00001  -0.00003   0.00003  -0.00000   2.09673
   A106       2.34783   0.00011  -0.00061  -0.00013  -0.00075   2.34708
   A107       3.19057  -0.00000  -0.00007   0.00011   0.00004   3.19061
   A108       3.19393   0.00001   0.00003   0.00001   0.00004   3.19397
   A109       3.03946  -0.00003   0.00008  -0.00010  -0.00002   3.03943
   A110       3.13454   0.00002  -0.00085   0.00138   0.00053   3.13506
   A111       3.13194   0.00000   0.00025  -0.00021   0.00004   3.13198
   A112       3.19247  -0.00002   0.00013  -0.00045  -0.00032   3.19215
   A113       3.14367   0.00010  -0.00016  -0.00011  -0.00027   3.14339
   A114       3.20218  -0.00001   0.00003   0.00012   0.00015   3.20233
   A115       3.08059   0.00001  -0.00012   0.00017   0.00005   3.08064
   A116       3.05182  -0.00001  -0.00025   0.00014  -0.00012   3.05170
   A117       3.14198   0.00003  -0.00024   0.00090   0.00066   3.14264
   A118       3.14009   0.00002  -0.00006   0.00047   0.00041   3.14050
   A119       3.11172  -0.00003   0.00012  -0.00058  -0.00046   3.11125
   A120       3.13426   0.00003  -0.00045   0.00009  -0.00036   3.13389
    D1        1.98541  -0.00001   0.00022  -0.00039  -0.00017   1.98524
    D2       -1.19337   0.00000   0.00032  -0.00035  -0.00003  -1.19341
    D3        0.40644  -0.00003   0.00021  -0.00046  -0.00025   0.40619
    D4       -2.77235  -0.00002   0.00032  -0.00043  -0.00011  -2.77246
    D5       -1.21400   0.00000   0.00010  -0.00021  -0.00012  -1.21412
    D6        1.89040   0.00001   0.00020  -0.00018   0.00002   1.89042
    D7       -2.81939  -0.00004  -0.00005  -0.00031  -0.00036  -2.81975
    D8        0.28500  -0.00003   0.00006  -0.00027  -0.00022   0.28479
    D9        1.05063   0.00000  -0.00027   0.00042   0.00015   1.05078
   D10       -2.08203   0.00000  -0.00020  -0.00001  -0.00021  -2.08224
   D11        2.62013  -0.00000  -0.00020   0.00037   0.00017   2.62030
   D12       -0.51254  -0.00000  -0.00012  -0.00006  -0.00018  -0.51272
   D13       -2.03337  -0.00000  -0.00025   0.00054   0.00030  -2.03307
   D14        1.11715  -0.00000  -0.00018   0.00012  -0.00006   1.11709
   D15       -0.41991   0.00003  -0.00028   0.00049   0.00020  -0.41971
   D16        2.73061   0.00003  -0.00021   0.00006  -0.00015   2.73045
   D17       -1.66067   0.00002   0.00159   0.00009   0.00168  -1.65898
   D18        2.99686  -0.00000   0.00161  -0.00005   0.00156   2.99842
   D19        1.42630   0.00002   0.00164  -0.00002   0.00162   1.42792
   D20       -0.08632   0.00001   0.00166  -0.00005   0.00161  -0.08472
   D21        3.04643   0.00001   0.00030  -0.00009   0.00020   3.04663
   D22       -0.09730   0.00000   0.00007   0.00022   0.00029  -0.09701
   D23       -0.05989   0.00001   0.00020  -0.00013   0.00007  -0.05981
   D24        3.07957  -0.00000  -0.00003   0.00019   0.00016   3.07973
   D25       -3.08639  -0.00001  -0.00023  -0.00003  -0.00026  -3.08664
   D26        0.04142  -0.00001  -0.00012  -0.00015  -0.00027   0.04115
   D27        0.01896  -0.00000  -0.00013   0.00001  -0.00012   0.01884
   D28       -3.13643  -0.00000  -0.00002  -0.00011  -0.00013  -3.13656
   D29       -0.01344   0.00000  -0.00005   0.00004  -0.00001  -0.01345
   D30        3.13750  -0.00000  -0.00013   0.00023   0.00010   3.13760
   D31        3.10883   0.00000   0.00004  -0.00010  -0.00006   3.10877
   D32       -0.02342   0.00000  -0.00004   0.00009   0.00005  -0.02337
   D33        0.02169  -0.00000   0.00006   0.00000   0.00006   0.02175
   D34       -3.10542  -0.00000  -0.00006   0.00013   0.00008  -3.10534
   D35       -3.13887  -0.00000   0.00015  -0.00014   0.00001  -3.13886
   D36        0.01720   0.00000   0.00003  -0.00001   0.00002   0.01723
   D37       -0.01319   0.00001   0.00010  -0.00019  -0.00009  -0.01328
   D38        3.11447   0.00001   0.00014  -0.00026  -0.00013   3.11435
   D39        3.13771   0.00000   0.00002   0.00000   0.00002   3.13772
   D40       -0.01782   0.00001   0.00006  -0.00008  -0.00002  -0.01784
   D41        0.05749  -0.00001  -0.00019   0.00022   0.00003   0.05752
   D42       -3.07085  -0.00001  -0.00023   0.00029   0.00006  -3.07079
   D43       -3.08196   0.00000   0.00005  -0.00010  -0.00005  -3.08201
   D44        0.07289  -0.00001   0.00001  -0.00003  -0.00002   0.07287
   D45        2.65115   0.00002   0.00030   0.00027   0.00057   2.65172
   D46       -0.47106  -0.00001   0.00136   0.00012   0.00148  -0.46958
   D47       -0.56177  -0.00005  -0.00278   0.00021  -0.00257  -0.56434
   D48       -3.12091  -0.00000   0.00086  -0.00002   0.00083  -3.12008
   D49        0.01581  -0.00000   0.00061   0.00004   0.00065   0.01646
   D50        0.00376  -0.00000   0.00000   0.00011   0.00011   0.00387
   D51        3.14048   0.00000  -0.00024   0.00017  -0.00007   3.14041
   D52        0.01092   0.00000  -0.00063  -0.00009  -0.00072   0.01021
   D53        3.11993   0.00000  -0.00092   0.00017  -0.00076   3.11917
   D54       -3.11377  -0.00000   0.00023  -0.00022   0.00000  -3.11376
   D55       -0.00476   0.00000  -0.00007   0.00003  -0.00004  -0.00480
   D56        3.13916   0.00000  -0.00011   0.00003  -0.00007   3.13908
   D57       -0.00007   0.00000   0.00005  -0.00009  -0.00004  -0.00011
   D58        0.00247  -0.00000   0.00014  -0.00003   0.00011   0.00258
   D59       -3.13675  -0.00000   0.00030  -0.00016   0.00014  -3.13661
   D60       -0.00260   0.00000  -0.00004  -0.00006  -0.00010  -0.00271
   D61        3.13453   0.00000  -0.00009   0.00011   0.00002   3.13456
   D62        3.14137  -0.00000   0.00012  -0.00019  -0.00007   3.14130
   D63       -0.00468   0.00000   0.00007  -0.00002   0.00005  -0.00463
   D64        0.00207  -0.00000   0.00008  -0.00019  -0.00011   0.00196
   D65       -3.12534  -0.00000   0.00010  -0.00014  -0.00005  -3.12539
   D66        3.11062   0.00000  -0.00022   0.00007  -0.00015   3.11046
   D67       -0.01680  -0.00000  -0.00020   0.00012  -0.00009  -0.01689
   D68       -3.13710   0.00000  -0.00006  -0.00025  -0.00031  -3.13741
   D69        0.01954   0.00000   0.00004  -0.00045  -0.00041   0.01913
   D70       -0.00421   0.00000  -0.00013   0.00017   0.00004  -0.00418
   D71       -3.13075   0.00000  -0.00003  -0.00004  -0.00006  -3.13082
   D72       -3.11001  -0.00000   0.00004   0.00044   0.00048  -3.10953
   D73        0.04773   0.00000   0.00000   0.00036   0.00037   0.04810
   D74        0.04006  -0.00000   0.00011   0.00003   0.00014   0.04021
   D75       -3.08538   0.00000   0.00007  -0.00004   0.00003  -3.08535
   D76        3.13981   0.00000   0.00016   0.00001   0.00017   3.13998
   D77        0.00221   0.00000  -0.00014   0.00027   0.00013   0.00234
   D78        0.02236   0.00000   0.00022  -0.00006   0.00016   0.02252
   D79       -3.11524  -0.00000  -0.00008   0.00020   0.00012  -3.11512
   D80       -0.02644  -0.00000  -0.00003  -0.00015  -0.00018  -0.02663
   D81        3.09937  -0.00000  -0.00014   0.00006  -0.00008   3.09929
   D82        3.13885  -0.00000   0.00002  -0.00022  -0.00020   3.13866
   D83       -0.01851  -0.00000  -0.00009  -0.00001  -0.00009  -0.01861
   D84        3.10824  -0.00001  -0.00029   0.00016  -0.00012   3.10812
   D85        0.00989  -0.00000  -0.00024   0.00024   0.00001   0.00990
   D86       -0.03732  -0.00000   0.00001  -0.00010  -0.00009  -0.03741
   D87       -3.13568   0.00000   0.00006  -0.00002   0.00004  -3.13563
   D88       -2.41164   0.00001   0.00009   0.00005   0.00014  -2.41150
   D89        0.79973   0.00000  -0.00002   0.00010   0.00007   0.79980
   D90       -0.80599  -0.00000   0.00000  -0.00007  -0.00007  -0.80606
   D91        2.40792  -0.00001  -0.00013  -0.00001  -0.00014   2.40778
   D92        2.45002  -0.00000  -0.00011  -0.00000  -0.00011   2.44991
   D93       -0.74289  -0.00000  -0.00000  -0.00006  -0.00006  -0.74295
   D94        0.73562   0.00000  -0.00003   0.00009   0.00006   0.73568
   D95       -2.45466   0.00000   0.00011  -0.00001   0.00010  -2.45456
   D96        1.23229  -0.00001  -0.00002   0.00019   0.00017   1.23246
   D97       -1.92439  -0.00001   0.00005   0.00002   0.00007  -1.92432
   D98       -1.92338  -0.00000   0.00002   0.00011   0.00013  -1.92325
   D99        1.20313  -0.00001   0.00009  -0.00005   0.00004   1.20317
   D100       3.08744  -0.00000   0.00009  -0.00015  -0.00006   3.08738
   D101      -0.03004  -0.00000   0.00004  -0.00011  -0.00007  -0.03012
   D102      -0.03931   0.00000   0.00003   0.00001   0.00003  -0.03928
   D103       3.12639   0.00000  -0.00003   0.00005   0.00002   3.12641
   D104       0.12964  -0.00000  -0.00021   0.00022   0.00001   0.12965
   D105      -3.08204   0.00000  -0.00009   0.00017   0.00008  -3.08196
   D106      -3.02679  -0.00001  -0.00014   0.00006  -0.00008  -3.02687
   D107       0.04471  -0.00000  -0.00002   0.00001  -0.00001   0.04470
   D108      -0.00316  -0.00000  -0.00001  -0.00001  -0.00002  -0.00318
   D109      -3.12542  -0.00000  -0.00001  -0.00001  -0.00002  -3.12544
   D110       3.11407   0.00000   0.00004  -0.00004   0.00000   3.11407
   D111      -0.00819   0.00000   0.00005  -0.00005  -0.00000  -0.00819
   D112       0.04065  -0.00000  -0.00000  -0.00002  -0.00002   0.04063
   D113      -3.11350   0.00000   0.00001   0.00001   0.00002  -3.11348
   D114      -3.12024  -0.00000  -0.00001  -0.00001  -0.00002  -3.12025
   D115       0.00880   0.00000   0.00000   0.00002   0.00002   0.00882
   D116       3.05569   0.00000   0.00011  -0.00002   0.00009   3.05577
   D117      -0.03498   0.00000   0.00000   0.00004   0.00004  -0.03494
   D118      -0.07344   0.00000   0.00010  -0.00005   0.00005  -0.07340
   D119       3.11908  -0.00000  -0.00001   0.00001   0.00000   3.11908
   D120      -0.02627   0.00000   0.00002  -0.00003  -0.00000  -0.02627
   D121      -3.09775  -0.00000  -0.00009   0.00002  -0.00007  -3.09782
   D122       3.06358   0.00000   0.00013  -0.00008   0.00005   3.06362
   D123      -0.00790  -0.00000   0.00001  -0.00003  -0.00002  -0.00792
   D124       0.04049   0.00000   0.00004  -0.00002   0.00001   0.04051
   D125      -3.05175  -0.00000  -0.00010   0.00007  -0.00002  -3.05177
   D126       3.10973   0.00000   0.00017  -0.00008   0.00008   3.10982
   D127       0.01749   0.00000   0.00003   0.00002   0.00005   0.01754
   D128       3.01309   0.00000   0.00011  -0.00007   0.00003   3.01313
   D129      -0.15335  -0.00000   0.00014  -0.00018  -0.00004  -0.15339
   D130      -0.05566  -0.00000  -0.00003  -0.00001  -0.00004  -0.05569
   D131       3.06109  -0.00000   0.00001  -0.00012  -0.00011   3.06098
   D132      -3.05927  -0.00000  -0.00013   0.00007  -0.00006  -3.05933
   D133       0.07037  -0.00000  -0.00011   0.00007  -0.00004   0.07034
   D134       0.03405  -0.00000  -0.00000  -0.00002  -0.00003   0.03402
   D135      -3.11949   0.00000   0.00002  -0.00002  -0.00000  -3.11949
   D136      -0.04663  -0.00000  -0.00004   0.00003  -0.00001  -0.04664
   D137       3.11965   0.00000  -0.00001   0.00000  -0.00001   3.11964
   D138       3.10701  -0.00000  -0.00006   0.00003  -0.00003   3.10697
   D139      -0.00989  -0.00000  -0.00004  -0.00000  -0.00004  -0.00993
   D140       0.00753   0.00000   0.00004  -0.00003   0.00002   0.00755
   D141      -3.10315   0.00000   0.00002  -0.00002   0.00000  -3.10315
   D142       3.12439   0.00000   0.00002   0.00000   0.00002   3.12441
   D143       0.01371   0.00000   0.00000   0.00001   0.00001   0.01372
   D144       0.04343  -0.00000  -0.00001   0.00002   0.00001   0.04343
   D145      -3.07396   0.00000  -0.00004   0.00012   0.00008  -3.07388
   D146      -3.12876  -0.00000   0.00001   0.00001   0.00002  -3.12874
   D147       0.03704   0.00000  -0.00002   0.00011   0.00009   0.03713
   D148       2.10137   0.00001   0.00002  -0.00023  -0.00021   2.10116
   D149      -1.08413   0.00000  -0.00004  -0.00031  -0.00034  -1.08447
   D150      -1.06525   0.00001   0.00005  -0.00033  -0.00028  -1.06554
   D151       2.03243   0.00000  -0.00000  -0.00041  -0.00042   2.03202
   D152      -0.04309   0.00000   0.00008  -0.00024  -0.00016  -0.04326
   D153       3.08220   0.00000   0.00011  -0.00016  -0.00005   3.08215
   D154       3.13991   0.00000   0.00012  -0.00016  -0.00004   3.13988
   D155      -0.01798   0.00000   0.00016  -0.00009   0.00007  -0.01790
   D156       0.00159   0.00000  -0.00003   0.00021   0.00018   0.00177
   D157       3.12894   0.00000  -0.00004   0.00016   0.00012   3.12906
   D158      -3.13555  -0.00000   0.00002   0.00003   0.00005  -3.13550
   D159      -0.00820  -0.00000   0.00001  -0.00002  -0.00001  -0.00821
         Item               Value     Threshold  Converged?
 Maximum Force            0.000159     0.000450     YES
 RMS     Force            0.000017     0.000300     YES
 Maximum Displacement     0.008444     0.001800     NO 
 RMS     Displacement     0.000877     0.001200     YES
 Predicted change in Energy=-1.886873D-07
 GradGradGradGradGradGradGradGradGradGradGradGradGradGradGradGradGradGrad

 Stoichiometry    C32H19BrMnN3O3S2
 Framework group  C1[X(C32H19BrMnN3O3S2)]
 Deg. of freedom   177
 Full point group                 C1      NOp   1
 Largest Abelian subgroup         C1      NOp   1
 Largest concise Abelian subgroup C1      NOp   1
                         Standard orientation:                         
 ---------------------------------------------------------------------
 Center     Atomic      Atomic             Coordinates (Angstroms)
 Number     Number       Type             X           Y           Z
 ---------------------------------------------------------------------
      1         25           0       -2.074739   -1.587756   -1.061725
      2          6           0       -3.083625   -1.321171   -2.552845
      3          8           0       -3.716844   -1.146161   -3.489162
      4          6           0       -2.846781   -3.202389   -0.727683
      5          8           0       -3.329117   -4.215815   -0.507146
      6          6           0       -0.814000   -2.380969   -2.060174
      7          7           0       -0.923041   -1.751471    0.763432
      8          6           0       -0.743014   -1.738118    3.154395
      9          6           0        0.645887   -1.813081    3.081545
     10          6           0        0.406879   -1.870861    0.706881
     11          1           0       -1.256227   -1.692932    4.115138
     12          1           0        1.256974   -1.815907    3.986475
     13          7           0       -5.234572    3.233342    1.577044
     14          6           0       -4.081024    3.204389    1.673069
     15          6           0       -2.646725    3.173089    1.783939
     16          6           0       -1.914652    4.365384    1.690658
     17          6           0       -0.526189    4.323711    1.773053
     18          6           0       -1.990973    1.946831    1.963424
     19          1           0       -2.434315    5.314539    1.549883
     20          1           0       -2.574007    1.025686    2.007834
     21          7           0       -1.189032    0.368934   -1.292178
     22          6           0       -1.351953    2.755662   -1.430801
     23          6           0        0.026740    2.872097   -1.574352
     24          1           0       -1.993937    3.636375   -1.413699
     25          6           0       -1.486488   -1.697204    1.981799
     26          1           0       -2.573219   -1.604668    2.004226
     27          6           0       -1.917735    1.496706   -1.278079
     28          1           0       -2.990899    1.375443   -1.124178
     29          1           0        0.048599    5.248550    1.698687
     30          8           0       -0.054288   -2.920341   -2.734369
     31         16           0        2.534181    0.705503    0.788286
[...]
                 (A) (A) (A) (A) (A) (A) (A) (A) (A) (A) (A) (A)
                 (A) (A) (A) (A) (A) (A) (A) (A) (A) (A) (A) (A)
                 (A) (A) (A) (A) (A) (A) (A) (A) (A) (A) (A) (A)
                 (A) (A) (A) (A) (A) (A) (A) (A) (A) (A) (A) (A)
                 (A) (A) (A) (A) (A) (A) (A) (A) (A) (A) (A) (A)
                 (A) (A) (A) (A) (A) (A) (A) (A) (A) (A) (A) (A)
                 (A) (A) (A) (A) (A) (A) (A) (A) (A) (A) (A) (A)
                 (A) (A) (A) (A) (A) (A) (A) (A) (A) (A) (A) (A)
                 (A) (A) (A) (A) (A) (A) (A) (A) (A) (A) (A)
 The electronic state is 1-A.
 Alpha  occ. eigenvalues -- -482.99676-235.69706 -89.04340 -89.03995 -62.57662
 Alpha  occ. eigenvalues --  -56.38298 -56.38190 -56.38182 -27.46640 -23.52425
 Alpha  occ. eigenvalues --  -23.52269 -23.52162 -19.33664 -19.33659 -19.33422
 Alpha  occ. eigenvalues --  -14.50342 -14.49938 -14.45336 -10.41344 -10.41340
 Alpha  occ. eigenvalues --  -10.41019 -10.36855 -10.36451 -10.36034 -10.36003
 Alpha  occ. eigenvalues --  -10.35956 -10.35765 -10.35760 -10.35640 -10.35057
 Alpha  occ. eigenvalues --  -10.35023 -10.34579 -10.34510 -10.34462 -10.34437
 Alpha  occ. eigenvalues --  -10.34200 -10.34130 -10.33226 -10.33004 -10.32928
 Alpha  occ. eigenvalues --  -10.32886 -10.32762 -10.32691 -10.32638 -10.32618
 Alpha  occ. eigenvalues --  -10.32503 -10.32468 -10.32312 -10.32084 -10.31916
 Alpha  occ. eigenvalues --   -8.74409  -8.09374  -8.09131  -6.56341  -6.55967
 Alpha  occ. eigenvalues --   -6.55938  -6.04839  -6.04593  -6.04447  -6.04195
 Alpha  occ. eigenvalues --   -6.03817  -6.03567  -3.25843  -2.66804  -2.66709
 Alpha  occ. eigenvalues --   -2.66686  -2.66389  -2.66387  -2.11329  -2.10978
 Alpha  occ. eigenvalues --   -2.10855  -1.22648  -1.22582  -1.22232  -1.08102
 Alpha  occ. eigenvalues --   -1.07559  -1.01378  -1.00887  -0.98916  -0.97365
 Alpha  occ. eigenvalues --   -0.94697  -0.93466  -0.92357  -0.91235  -0.89690
 Alpha  occ. eigenvalues --   -0.88305  -0.87655  -0.86664  -0.86021  -0.85443
 Alpha  occ. eigenvalues --   -0.83008  -0.79548  -0.79011  -0.75994  -0.75747
 Alpha  occ. eigenvalues --   -0.75176  -0.74799  -0.74208  -0.72619  -0.71614
 Alpha  occ. eigenvalues --   -0.70491  -0.69985  -0.67509  -0.67198  -0.65353
 Alpha  occ. eigenvalues --   -0.64773  -0.64663  -0.64396  -0.64193  -0.62434
 Alpha  occ. eigenvalues --   -0.61434  -0.60794  -0.60053  -0.58723  -0.58386
 Alpha  occ. eigenvalues --   -0.57929  -0.57668  -0.57213  -0.57077  -0.56826
 Alpha  occ. eigenvalues --   -0.56072  -0.55915  -0.55630  -0.54906  -0.54770
 Alpha  occ. eigenvalues --   -0.54571  -0.54181  -0.53759  -0.53664  -0.53405
 Alpha  occ. eigenvalues --   -0.53183  -0.52775  -0.52552  -0.52224  -0.52042
 Alpha  occ. eigenvalues --   -0.51731  -0.51318  -0.50638  -0.50607  -0.49815
 Alpha  occ. eigenvalues --   -0.49552  -0.49164  -0.48474  -0.48350  -0.47476
 Alpha  occ. eigenvalues --   -0.46959  -0.45484  -0.45363  -0.45167  -0.44808
 Alpha  occ. eigenvalues --   -0.44532  -0.44359  -0.43889  -0.42568  -0.42020
 Alpha  occ. eigenvalues --   -0.41004  -0.40342  -0.40008  -0.39724  -0.38818
 Alpha  occ. eigenvalues --   -0.37128  -0.36905  -0.35984  -0.35761  -0.35337
 Alpha  occ. eigenvalues --   -0.34861  -0.34334  -0.34061  -0.33923  -0.31521
 Alpha  occ. eigenvalues --   -0.31393  -0.30630  -0.30384  -0.30333
 Alpha virt. eigenvalues --    0.00206   0.00481   0.00894   0.01039   0.01781
 Alpha virt. eigenvalues --    0.02591   0.03111   0.03658   0.03949   0.04161
 Alpha virt. eigenvalues --    0.04813   0.04930   0.05450   0.07591   0.07956
 Alpha virt. eigenvalues --    0.08977   0.09438   0.09644   0.10473   0.10538
 Alpha virt. eigenvalues --    0.10761   0.11014   0.12715   0.13325   0.13358
 Alpha virt. eigenvalues --    0.13662   0.14700   0.14891   0.15665   0.15880
 Alpha virt. eigenvalues --    0.16102   0.16326   0.16349   0.17880   0.18065
 Alpha virt. eigenvalues --    0.18396   0.18873   0.19228   0.19744   0.19926
 Alpha virt. eigenvalues --    0.20332   0.20545   0.21463   0.21748   0.21904
 Alpha virt. eigenvalues --    0.22473   0.23031   0.23206   0.23492   0.23993
 Alpha virt. eigenvalues --    0.24879   0.25229   0.26104   0.27315   0.27528
 Alpha virt. eigenvalues --    0.28169   0.28512   0.29540   0.30197   0.30999
 Alpha virt. eigenvalues --    0.31146   0.31918   0.32202   0.32373   0.32808
 Alpha virt. eigenvalues --    0.33199   0.33360   0.33534   0.33832   0.34310
 Alpha virt. eigenvalues --    0.34954   0.35417   0.35533   0.36045   0.36088
 Alpha virt. eigenvalues --    0.36613   0.36728   0.37139   0.37340   0.37771
 Alpha virt. eigenvalues --    0.38136   0.38567   0.38726   0.39133   0.39839
 Alpha virt. eigenvalues --    0.40241   0.41170   0.41708   0.42097   0.42317
 Alpha virt. eigenvalues --    0.42727   0.42820   0.43596   0.44317   0.44956
 Alpha virt. eigenvalues --    0.45304   0.46275   0.46760   0.46963   0.47359
 Alpha virt. eigenvalues --    0.47631   0.47973   0.48586   0.49035   0.49220
 Alpha virt. eigenvalues --    0.49657   0.50172   0.50388   0.50820   0.51621
 Alpha virt. eigenvalues --    0.52609   0.52788   0.52951   0.53132   0.53594
 Alpha virt. eigenvalues --    0.53863   0.54228   0.54764   0.54837   0.55093
 Alpha virt. eigenvalues --    0.55249   0.55745   0.56403   0.56514   0.56854
 Alpha virt. eigenvalues --    0.57079   0.57715   0.58134   0.58606   0.58767
 Alpha virt. eigenvalues --    0.59193   0.60376   0.60448   0.60559   0.60960
 Alpha virt. eigenvalues --    0.61993   0.62334   0.62679   0.63219   0.63611
 Alpha virt. eigenvalues --    0.64095   0.64525   0.64944   0.65313   0.65658
 Alpha virt. eigenvalues --    0.65884   0.66266   0.66707   0.66977   0.67750
 Alpha virt. eigenvalues --    0.67985   0.68092   0.68857   0.69154   0.69313
 Alpha virt. eigenvalues --    0.70261   0.70581   0.70815   0.71262   0.71458
 Alpha virt. eigenvalues --    0.71792   0.72069   0.72606   0.72690   0.72927
 Alpha virt. eigenvalues --    0.73191   0.73338   0.73489   0.73677   0.74187
 Alpha virt. eigenvalues --    0.74324   0.74501   0.75044   0.75669   0.75965
 Alpha virt. eigenvalues --    0.76260   0.76435   0.76686   0.77363   0.77620
 Alpha virt. eigenvalues --    0.77873   0.78182   0.78347   0.78622   0.79128
 Alpha virt. eigenvalues --    0.79238   0.79784   0.80029   0.80205   0.80448
 Alpha virt. eigenvalues --    0.80717   0.81774   0.81905   0.82172   0.82508
 Alpha virt. eigenvalues --    0.82998   0.83540   0.83725   0.83905   0.84123
 Alpha virt. eigenvalues --    0.84477   0.84819   0.85309   0.85660   0.85716
 Alpha virt. eigenvalues --    0.86197   0.86433   0.86622   0.87346   0.87497
 Alpha virt. eigenvalues --    0.87678   0.88059   0.88391   0.88508   0.89367
 Alpha virt. eigenvalues --    0.89570   0.90110   0.90376   0.90522   0.90809
 Alpha virt. eigenvalues --    0.91158   0.91647   0.92328   0.92770   0.93232
 Alpha virt. eigenvalues --    0.93758   0.94327   0.94480   0.94894   0.95223
 Alpha virt. eigenvalues --    0.96300   0.97317   0.97580   0.98281   0.98800
 Alpha virt. eigenvalues --    0.99565   1.00297   1.00582   1.01312   1.02116
 Alpha virt. eigenvalues --    1.02696   1.03379   1.03673   1.03987   1.05015
 Alpha virt. eigenvalues --    1.05165   1.05845   1.06896   1.06959   1.08281
 Alpha virt. eigenvalues --    1.09626   1.09760   1.09934   1.10439   1.10893
 Alpha virt. eigenvalues --    1.11745   1.12634   1.13564   1.14223   1.14410
 Alpha virt. eigenvalues --    1.14982   1.15299   1.15472   1.16591   1.17004
 Alpha virt. eigenvalues --    1.17537   1.19671   1.19914   1.21189   1.21638
 Alpha virt. eigenvalues --    1.22232   1.22835   1.23326   1.24753   1.25655
 Alpha virt. eigenvalues --    1.26144   1.26720   1.26901   1.27370   1.28422
 Alpha virt. eigenvalues --    1.28727   1.29108   1.29214   1.29761   1.30323
 Alpha virt. eigenvalues --    1.30619   1.30836   1.31867   1.32128   1.32641
 Alpha virt. eigenvalues --    1.33079   1.33496   1.34160   1.34331   1.34843
 Alpha virt. eigenvalues --    1.35555   1.35710   1.35930   1.36311   1.37317
 Alpha virt. eigenvalues --    1.37648   1.38241   1.38817   1.39719   1.40136
 Alpha virt. eigenvalues --    1.40259   1.41076   1.41201   1.43211   1.43347
 Alpha virt. eigenvalues --    1.43774   1.44587   1.47044   1.48702   1.49226
 Alpha virt. eigenvalues --    1.50749   1.51601   1.53773   1.54224   1.55133
 Alpha virt. eigenvalues --    1.56549   1.58047   1.58721   1.59376   1.61451
 Alpha virt. eigenvalues --    1.62460   1.63033   1.63921   1.66010   1.66210
 Alpha virt. eigenvalues --    1.67226   1.67364   1.68656   1.69488   1.69859
 Alpha virt. eigenvalues --    1.70272   1.71039   1.71964   1.72679   1.73781
 Alpha virt. eigenvalues --    1.74778   1.75107   1.75392   1.75840   1.76228
 Alpha virt. eigenvalues --    1.76519   1.76674   1.76735   1.77645   1.77742
 Alpha virt. eigenvalues --    1.78154   1.78760   1.79236   1.79482   1.79637
 Alpha virt. eigenvalues --    1.80343   1.80459   1.81603   1.81672   1.81940
 Alpha virt. eigenvalues --    1.82190   1.82613   1.83015   1.83792   1.84489
 Alpha virt. eigenvalues --    1.84725   1.85187   1.85640   1.85872   1.87026
 Alpha virt. eigenvalues --    1.87084   1.87670   1.88161   1.88523   1.88886
 Alpha virt. eigenvalues --    1.89139   1.89297   1.89925   1.90065   1.90710
 Alpha virt. eigenvalues --    1.91250   1.92191   1.92516   1.92891   1.93918
 Alpha virt. eigenvalues --    1.94467   1.94497   1.96310   1.97093   1.97639
 Alpha virt. eigenvalues --    1.97953   1.98892   1.99157   1.99643   2.00402
 Alpha virt. eigenvalues --    2.01230   2.01744   2.01979   2.02188   2.03065
 Alpha virt. eigenvalues --    2.03242   2.04186   2.04605   2.04668   2.05452
 Alpha virt. eigenvalues --    2.05935   2.06481   2.07237   2.07569   2.08220
 Alpha virt. eigenvalues --    2.08545   2.09287   2.09514   2.10367   2.10414
 Alpha virt. eigenvalues --    2.11275   2.12044   2.12317   2.13005   2.14709
 Alpha virt. eigenvalues --    2.16979   2.17569   2.18631   2.19316   2.19575
 Alpha virt. eigenvalues --    2.19928   2.21296   2.22108   2.22432   2.23125
 Alpha virt. eigenvalues --    2.23555   2.24313   2.24954   2.25090   2.26763
 Alpha virt. eigenvalues --    2.27508   2.27967   2.30158   2.30833   2.31253
 Alpha virt. eigenvalues --    2.31565   2.31676   2.31827   2.32240   2.32469
 Alpha virt. eigenvalues --    2.33103   2.34387   2.35179   2.35651   2.36223
 Alpha virt. eigenvalues --    2.36645   2.37911   2.38146   2.38549   2.38911
 Alpha virt. eigenvalues --    2.39102   2.39349   2.39821   2.40599   2.41107
 Alpha virt. eigenvalues --    2.41647   2.42557   2.43111   2.44252   2.46401
 Alpha virt. eigenvalues --    2.47251   2.48140   2.49052   2.50075   2.50414
 Alpha virt. eigenvalues --    2.53164   2.53598   2.55580   2.56527   2.59300
 Alpha virt. eigenvalues --    2.59763   2.60292   2.60597   2.62616   2.66619
 Alpha virt. eigenvalues --    2.67453   2.68249   2.68409   2.69363   2.69927
 Alpha virt. eigenvalues --    2.70120   2.70231   2.70268   2.70364   2.70707
 Alpha virt. eigenvalues --    2.71093   2.71315   2.71438   2.71506   2.72330
 Alpha virt. eigenvalues --    2.73003   2.76377   2.77044   2.77272   2.78270
 Alpha virt. eigenvalues --    2.80191   2.80832   2.81082   2.81409   2.82674
 Alpha virt. eigenvalues --    2.83437   2.83948   2.86106   2.86330   2.87133
 Alpha virt. eigenvalues --    2.87381   2.88049   2.89554   2.91048   2.93149
 Alpha virt. eigenvalues --    2.93361   2.94087   2.97315   2.99361   2.99776
 Alpha virt. eigenvalues --    3.00145   3.02031   3.03473   3.04081   3.04770
 Alpha virt. eigenvalues --    3.06351   3.08094   3.08630   3.09349   3.10715
 Alpha virt. eigenvalues --    3.11339   3.15232   3.16073   3.16546   3.20200
 Alpha virt. eigenvalues --    3.20848   3.21623   3.22755   3.23528   3.23869
 Alpha virt. eigenvalues --    3.24559   3.24725   3.30283   3.30763   3.33552
 Alpha virt. eigenvalues --    3.39122   3.39513   3.41100   3.44910   3.45557
 Alpha virt. eigenvalues --    3.47196   3.51541   3.53706   3.53947   3.57324
 Alpha virt. eigenvalues --    3.58442   3.61908   3.62644   3.63584   3.64368
 Alpha virt. eigenvalues --    3.64544   3.68390   3.70123   3.70829   3.75919
 Alpha virt. eigenvalues --    3.77388   3.78968   3.80461   3.82170   3.83128
 Alpha virt. eigenvalues --    3.93371   3.98883   4.03175   4.07173   4.10907
          Condensed to atoms (all electrons):
 Mulliken charges:
               1
     1  Mn  -0.767575
     2  C    0.375058
     3  O   -0.062742
     4  C    0.374220
     5  O   -0.063280
     6  C    0.302997
     7  N   -0.212738
     8  C   -0.040016
     9  C    0.072240
    10  C    0.145528
    11  H    0.061172
    12  H    0.055816
    13  N   -0.027514
    14  C   -0.029162
    15  C   -0.174922
    16  C    0.019530
    17  C   -0.029972
    18  C    0.063129
    19  H    0.043617
    20  H    0.053184
    21  N   -0.218831
    22  C   -0.026598
    23  C    0.063454
    24  H    0.055974
    25  C    0.095615
    26  H    0.110069
    27  C    0.113150
    28  H    0.104576
    29  H    0.046827
    30  O   -0.081548
    31  S    0.082959
    32  S    0.090045
    33  C   -0.103998
    34  C   -0.008817
    35  C   -0.010680
    36  C   -0.018427
    37  C   -0.006694
    38  C   -0.080083
    39  C   -0.042520
    40  H    0.039358
    41  H    0.052157
    42  H    0.042333
    43  C   -0.050830
    44  C   -0.083752
    45  C   -0.006780
    46  C   -0.017422
    47  C   -0.017745
    48  C    0.004611
    49  H    0.042194
    50  H    0.051676
    51  H    0.039702
    52  C   -0.088766
    53  H    0.049067
    54  C    0.161810
    55  H    0.030424
    56  H    0.053308
    57  C    0.007095
    58  C   -0.019019
    59  H    0.015736
    60  H    0.039482
    61  Br  -0.667681
 Sum of Mulliken charges =  -0.00000
 Mulliken charges with hydrogens summed into heavy atoms:
               1
     1  Mn  -0.767575
     2  C    0.375058
     3  O   -0.062742
     4  C    0.374220
     5  O   -0.063280
     6  C    0.302997
     7  N   -0.212738
     8  C    0.021156
     9  C    0.128056
    10  C    0.198835
    13  N   -0.027514
    14  C   -0.029162
    15  C   -0.174922
    16  C    0.063146
    17  C    0.016855
    18  C    0.116313
    21  N   -0.218831
    22  C    0.029376
    23  C    0.112521
    25  C    0.205683
    27  C    0.217726
    30  O   -0.081548
    31  S    0.082959
    32  S    0.090045
    33  C   -0.103998
    34  C   -0.008817
    35  C    0.028678
    36  C    0.033730
    37  C    0.035640
    38  C   -0.080083
    39  C   -0.042520
    43  C   -0.050830
    44  C   -0.083752
    45  C    0.035414
    46  C    0.034254
    47  C    0.021957
    48  C    0.004611
    52  C   -0.088766
    54  C    0.192234
    57  C    0.046576
    58  C   -0.003283
    61  Br  -0.667681
 Electronic spatial extent (au):  <R**2>=          22407.7723
 Charge=              0.0000 electrons
 Dipole moment (field-independent basis, Debye):
    X=             17.1008    Y=              1.9965    Z=              0.9993  Tot=             17.2459
 Quadrupole moment (field-independent basis, Debye-Ang):
   XX=           -332.3872   YY=           -251.8911   ZZ=           -257.3315
   XY=             -3.2181   XZ=              0.4495   YZ=            -27.9521
 Traceless Quadrupole moment (field-independent basis, Debye-Ang):
   XX=            -51.8506   YY=             28.6455   ZZ=             23.2052
   XY=             -3.2181   XZ=              0.4495   YZ=            -27.9521
 Octapole moment (field-independent basis, Debye-Ang**2):
  XXX=            354.6869  YYY=             23.0036  ZZZ=             -4.3669  XYY=             45.9038
  XXY=           -132.5355  XXZ=            -86.7604  XZZ=              0.7436  YZZ=            -27.6300
  YYZ=             -0.6178  XYZ=            -21.7241
 Hexadecapole moment (field-independent basis, Debye-Ang**3):
 XXXX=         -17675.5702 YYYY=          -7591.8392 ZZZZ=          -5044.4266 XXXY=            419.5695
 XXXZ=            192.0610 YYYX=            -14.4629 YYYZ=            -81.0710 ZZZX=           -137.5197
 ZZZY=           -260.3624 XXYY=          -4212.2595 XXZZ=          -3536.8798 YYZZ=          -2120.7549
 XXYZ=           -433.6160 YYXZ=            172.6642 ZZXY=            204.0155
 N-N= 6.844734307541D+03 E-N=-2.822892421072D+04  KE= 6.117248652258D+03
 1\1\GINC-C439-101\FOpt\RwB97XD\Gen\C32H19Br1Mn1N3O3S2\DMCINTOS\21-Mar-
 2023\0\\# wB97XD Gen SCRF=(Solvent=TetraHydroFuran) Opt\\Thian Prod Op
 timization\\0,1\Mn,2.0391137823,-1.3586008535,-1.1762381335\C,2.655820
 2432,-3.0693995431,-1.1033220874\O,3.0397517978,-4.1455419486,-1.05059
 47355\C,3.3558918794,-0.8453301896,-2.3240283143\O,4.1820193998,-0.512
 2260322,-3.0415573703\C,0.9860937589,-1.8003891066,-2.5588102664\N,1.3
 06407158,0.6763534046,-1.0943007002\C,1.501425208,2.9641406513,-0.4034
 361988\C,0.2273980614,3.2516182002,-0.8873623691\C,0.1047379493,0.9754
 549321,-1.5969769253\H,2.1094290822,3.7313915287,0.0762671138\H,-0.199
 7630034,4.2515046665,-0.7868939704\N,3.7330580974,-0.8064655568,4.9058
 881246\C,2.6878306082,-0.4275000325,4.5824660168\C,1.3852374457,0.0345
 80577,4.1821350807\C,0.2860201582,-0.160058179,5.0306878937\C,-0.97497
 03028,0.2665014112,4.6253188153\C,1.2220703531,0.6574366934,2.93661428
 56\H,0.4233129637,-0.6467832531,5.9976498982\H,2.0832669601,0.77759932
 51,2.2775910035\N,0.5160938729,-1.8284885614,0.2818634015\C,-0.1663076
 125,-2.5710565472,2.4555956202\C,-1.5069640828,-2.397975767,2.12751478
 01\H,0.1321683882,-2.922727064,3.443186465\C,1.9973662185,1.6713289792
 ,-0.5134173695\H,2.9773395768,1.4057639435,-0.1144298664\C,0.810460888
 6,-2.2634105063,1.5176806259\H,1.8709238889,-2.3511428936,1.7581247604
 \H,-1.8343570336,0.1153038964,5.2809331633\O,0.3611465447,-2.120433195
 6,-3.4696619892\S,-2.733090484,0.9526176723,0.1682437569\S,-5.65825372
 25,1.1732746131,-1.091546218\C,-0.4996073944,2.2291307656,-1.495446465
 6\C,-1.883359135,2.4033928158,-2.0211968331\C,-2.1171314533,3.16950204
 14,-3.1669823288\C,-3.4007825185,3.2813338352,-3.6972555064\C,-4.47017
 73578,2.6260820541,-3.0926981269\C,-4.2624638043,1.8931255369,-1.92171
 49868\C,-2.97428416,1.7843684307,-1.3826082646\H,-1.2757109525,3.66325
 56571,-3.6573421196\H,-3.567432468,3.8701850771,-4.6008480776\H,-5.472
 5714815,2.6903253378,-3.5205199854\C,-3.7148149432,-0.5119630457,-0.05
 65288404\C,-5.0082300263,-0.4012963663,-0.5854716954\C,-5.8312194977,-
 1.5268810478,-0.6681896116\C,-5.3769652813,-2.7509329459,-0.1858784099
 \C,-4.0871761458,-2.8671171823,0.3262586382\C,-3.2300796123,-1.7620069
 902,0.3748293356\H,-6.8297456585,-1.4370116581,-1.1004052794\H,-6.0265
 484207,-3.6267131218,-0.2310394684\H,-3.7210204777,-3.8364982614,0.670
 6936271\C,-1.8290371717,-1.9434021501,0.8484853566\H,-2.2935926837,-2.
 6091189997,2.8550096912\C,-0.7764002426,-1.6999943114,-0.0335811819\H,
 -1.0149506748,-1.3991510823,-1.0521670438\H,-0.4317067942,0.1849550207
 ,-2.1204633031\C,-1.1397902134,0.8824087429,3.3841214958\C,-0.04368788
 44,1.0776993097,2.5436533531\H,-0.1780890034,1.5492058219,1.5686659353
 \H,-2.1318776464,1.2100225549,3.0661172674\Br,3.8270270596,-0.91491910
 34,0.6890905377\\Version=ES64L-G16RevA.03\State=1-A\HF=-6140.2652772\R
 MSD=4.859e-09\RMSF=2.444e-06\Dipole=-6.448338,1.8193869,-1.0703847\Qua
 drupole=-29.7346913,23.9799815,5.7547097,19.7367823,-14.9665217,-14.02
 39414\PG=C01 [X(C32H19Br1Mn1N3O3S2)]\\@


 The number of Unix installations has grown to 10,
  with more expected.
                  -- The Unix Programmer's Manual,
                     2nd Edition, June, 1972.
 Job cpu time:       1 days  5 hours 53 minutes 37.3 seconds.
 Elapsed time:       0 days  2 hours 32 minutes 35.0 seconds.
 File lengths (MBytes):  RWF=    663 Int=      0 D2E=      0 Chk=     49 Scr=      1
 Normal termination of Gaussian 16 at Tue Mar 21 16:06:22 2023.
