 Entering Gaussian System, Link 0=g16
 Initial command:
 /home1/apps/gaussian/16rA.03/g16/l1.exe "/tmp/Gau-263580.inp" -scrdir="/tmp/"
 Entering Link 1 = /home1/apps/gaussian/16rA.03/g16/l1.exe PID=    263581.
  
 Copyright (c) 1988,1990,1992,1993,1995,1998,2003,2009,2016,
            Gaussian, Inc.  All Rights Reserved.
  
 This is part of the Gaussian(R) 16 program.  It is based on
 the Gaussian(R) 09 system (copyright 2009, Gaussian, Inc.),
 the Gaussian(R) 03 system (copyright 2003, Gaussian, Inc.),
 the Gaussian(R) 98 system (copyright 1998, Gaussian, Inc.),
 the Gaussian(R) 94 system (copyright 1995, Gaussian, Inc.),
 the Gaussian 92(TM) system (copyright 1992, Gaussian, Inc.),
 the Gaussian 90(TM) system (copyright 1990, Gaussian, Inc.),
 the Gaussian 88(TM) system (copyright 1988, Gaussian, Inc.),
 the Gaussian 86(TM) system (copyright 1986, Carnegie Mellon
 University), and the Gaussian 82(TM) system (copyright 1983,
 Carnegie Mellon University). Gaussian is a federally registered
 trademark of Gaussian, Inc.
  
 This software contains proprietary and confidential information,
 including trade secrets, belonging to Gaussian, Inc.
  
 This software is provided under written license and may be
 used, copied, transmitted, or stored only in accord with that
 written license.
  
 The following legend is applicable only to US Government
 contracts under FAR:
  
                    RESTRICTED RIGHTS LEGEND
  
 Use, reproduction and disclosure by the US Government is
 subject to restrictions as set forth in subparagraphs (a)
 and (c) of the Commercial Computer Software - Restricted
 Rights clause in FAR 52.227-19.
  
 Gaussian, Inc.
 340 Quinnipiac St., Bldg. 40, Wallingford CT 06492
  
  
 ---------------------------------------------------------------
 Warning -- This program may not be used in any manner that
 competes with the business of Gaussian, Inc. or will provide
 assistance to any competitor of Gaussian, Inc.  The licensee
 of this program is prohibited from giving any competitor of
 Gaussian, Inc. access to this program.  By using this program,
 the user acknowledges that Gaussian, Inc. is engaged in the
 business of creating and licensing software in the field of
 computational chemistry and represents and warrants to the
 licensee that it is not a competitor of Gaussian, Inc. and that
 it will not use this program in any manner prohibited above.
 ---------------------------------------------------------------
  

 Cite this work as:
 Gaussian 16, Revision A.03,
 M. J. Frisch, G. W. Trucks, H. B. Schlegel, G. E. Scuseria, 
 M. A. Robb, J. R. Cheeseman, G. Scalmani, V. Barone, 
 G. A. Petersson, H. Nakatsuji, X. Li, M. Caricato, A. V. Marenich, 
 J. Bloino, B. G. Janesko, R. Gomperts, B. Mennucci, H. P. Hratchian, 
 J. V. Ortiz, A. F. Izmaylov, J. L. Sonnenberg, D. Williams-Young, 
 F. Ding, F. Lipparini, F. Egidi, J. Goings, B. Peng, A. Petrone, 
 T. Henderson, D. Ranasinghe, V. G. Zakrzewski, J. Gao, N. Rega, 
 G. Zheng, W. Liang, M. Hada, M. Ehara, K. Toyota, R. Fukuda, 
 J. Hasegawa, M. Ishida, T. Nakajima, Y. Honda, O. Kitao, H. Nakai, 
 T. Vreven, K. Throssell, J. A. Montgomery, Jr., J. E. Peralta, 
 F. Ogliaro, M. J. Bearpark, J. J. Heyd, E. N. Brothers, K. N. Kudin, 
 V. N. Staroverov, T. A. Keith, R. Kobayashi, J. Normand, 
 K. Raghavachari, A. P. Rendell, J. C. Burant, S. S. Iyengar, 
 J. Tomasi, M. Cossi, J. M. Millam, M. Klene, C. Adamo, R. Cammi, 
 J. W. Ochterski, R. L. Martin, K. Morokuma, O. Farkas, 
 J. B. Foresman, and D. J. Fox, Gaussian, Inc., Wallingford CT, 2016.
 
 ******************************************
 Gaussian 16:  ES64L-G16RevA.03 25-Dec-2016
                 9-Mar-2023 
 ******************************************
 %RWF=myrwfile
 %NoSave
 %NProcShared=12
 Will use up to   12 processors via shared memory.
 %Chk=checkpoint.chk
 %mem=200MW
 ---------------------------------------------------------------
 # wB97XD Gen SCRF=(Solvent=TetraHydroFuran) Freq(Numer,Restart)
 ---------------------------------------------------------------
 1/35=1,38=10/6(3);
 7/8=1,25=1,44=-1/16;
 1/10=4,30=1,38=10/3;
 99//99;
 3/5=7,6=1,11=2,25=1,30=1,70=2205,71=1,72=20,74=-58,82=7/1,2,3;
 4/5=5,16=3,69=2/1;
 5/5=2,38=5,53=20,98=1/2;
 6/7=2,8=2,9=2,10=2,12=2,28=1/1;
 7/7=1/1,2,3,16;
 1/38=10/6(-5);
 7/8=1,25=1,44=-1/16;
 1/10=4,30=1,38=10/3;
 99//99;
 Restoring state from the checkpoint file "checkpoint.chk".
 ONIOM results not found on unit 2.
 Title:  TS Freq Analysis
 Route:  # wB97XD Gen SCRF=(Solvent=TetraHydroFuran) Freq(Numer)
 NDeriv=    189 NFrqRd=  0 NDerD0=      0 MskFDP=       0 MskDFD=       0 MskDF0=       0
 Re-enter D2Numr:  atom  63 IXYZ=1 step-down number 1
 Basis read from rwf:  (5D, 7F)
   751 basis functions,  1339 primitive gaussians,   802 cartesian basis functions
   165 alpha electrons      165 beta electrons
       nuclear repulsion energy      5860.1832171520 Hartrees.
 NAtoms=   63 NActive=   63 NUniq=   63 SFac= 1.00D+00 NAtFMM=   60 NAOKFM=T Big=T
 Integral buffers will be    131072 words long.
 Raffenetti 2 integral format.
 Two-electron integral symmetry is turned off.
 Nuclear repulsion after empirical dispersion term =     5860.1201481434 Hartrees.
 ------------------------------------------------------------------------------
 Polarizable Continuum Model (PCM)
 =================================
 Model                : PCM.
 Atomic radii         : UFF (Universal Force Field).
 Polarization charges : Total charges.
 Charge compensation  : None.
 Solution method      : On-the-fly selection.
 Cavity type          : Scaled VdW (van der Waals Surface) (Alpha=1.100).
 Cavity algorithm     : GePol (No added spheres)
                        Default sphere list used, NSphG=   63.
                        Lebedev-Laikov grids with approx.  5.0 points / Ang**2.
                        Smoothing algorithm: York/Karplus (Gamma=1.0000).
                        Polarization charges: spherical gaussians, with
                                              point-specific exponents (IZeta= 3).
                        Self-potential: point-specific (ISelfS= 7).
                        Self-field    : sphere-specific E.n sum rule (ISelfD= 2).
 1st derivatives      : Analytical E(r).r(x)/FMM algorithm (CHGder, D1EAlg=3).
                        Cavity 1st derivative terms included.
 Solvent              : TetraHydroFuran, Eps=   7.425700 Eps(inf)=   1.974025
 ------------------------------------------------------------------------------
 One-electron integrals computed using PRISM.
 NBasis=   751 RedAO= T EigKep=  2.24D-04  NBF=   751
 NBsUse=   751 1.00D-06 EigRej= -1.00D+00 NBFU=   751
 Initial guess from the checkpoint file:  "checkpoint.chk"
 B after Tr=     0.000000    0.000006    0.000000
         Rot=    1.000000    0.000000    0.000000   -0.000000 Ang=  -0.00 deg.
 Requested convergence on RMS density matrix=1.00D-08 within 128 cycles.
 Requested convergence on MAX density matrix=1.00D-06.
 Requested convergence on             energy=1.00D-06.
 No special actions if energy rises.
 Inv3:  Mode=1 IEnd=    73864332.
 Iteration    1 A*A^-1 deviation from unit magnitude is 3.55D-15 for    374.
 Iteration    1 A*A^-1 deviation from orthogonality  is 2.11D-15 for   4149    973.
 Iteration    1 A^-1*A deviation from unit magnitude is 3.55D-15 for    374.
 Iteration    1 A^-1*A deviation from orthogonality  is 2.44D-15 for   3140    454.
 Error on total polarization charges =  0.02143
 SCF Done:  E(RwB97XD) =  -5421.44460094     A.U. after    6 cycles
            NFock=  6  Conv=0.65D-08     -V/T= 2.0041

 **********************************************************************

            Population analysis using the SCF density.

 **********************************************************************

 Alpha  occ. eigenvalues -- -482.95450-235.70868 -62.53491 -56.34054 -56.34042
 Alpha  occ. eigenvalues --  -56.34037 -27.47536 -23.53467 -23.53109 -23.53047
 Alpha  occ. eigenvalues --  -19.34579 -19.34549 -19.34480 -14.50816 -14.50808
 Alpha  occ. eigenvalues --  -14.46642 -10.42153 -10.42149 -10.42107 -10.37155
 Alpha  occ. eigenvalues --  -10.37146 -10.36612 -10.36597 -10.36290 -10.35591
 Alpha  occ. eigenvalues --  -10.34657 -10.34642 -10.34559 -10.34550 -10.33579
 Alpha  occ. eigenvalues --  -10.33563 -10.33446 -10.33342 -10.33329 -10.33279
 Alpha  occ. eigenvalues --  -10.33273 -10.33252 -10.32880 -10.32874 -10.32638
 Alpha  occ. eigenvalues --  -10.32390 -10.32330 -10.32322 -10.32278 -10.32115
 Alpha  occ. eigenvalues --  -10.32033 -10.32002 -10.31995 -10.31849 -10.31845
 Alpha  occ. eigenvalues --   -8.70244  -6.51946  -6.51911  -6.51893  -3.26992
 Alpha  occ. eigenvalues --   -2.62450  -2.62444  -2.62430  -2.62402  -2.62400
 Alpha  occ. eigenvalues --   -2.12858  -2.11933  -2.11838  -1.23595  -1.23522
 Alpha  occ. eigenvalues --   -1.23338  -1.08600  -1.08292  -1.02155  -1.00302
 Alpha  occ. eigenvalues --   -0.97878  -0.97631  -0.94480  -0.93281  -0.91392
 Alpha  occ. eigenvalues --   -0.90866  -0.89860  -0.88166  -0.87492  -0.86416
 Alpha  occ. eigenvalues --   -0.85280  -0.85010  -0.81928  -0.76800  -0.75890
 Alpha  occ. eigenvalues --   -0.75416  -0.75397  -0.74764  -0.74595  -0.74404
 Alpha  occ. eigenvalues --   -0.72311  -0.72001  -0.70289  -0.69012  -0.68211
 Alpha  occ. eigenvalues --   -0.65748  -0.65264  -0.65173  -0.64939  -0.64543
 Alpha  occ. eigenvalues --   -0.64525  -0.62673  -0.62128  -0.61074  -0.60185
 Alpha  occ. eigenvalues --   -0.59149  -0.58430  -0.57661  -0.57535  -0.57259
 Alpha  occ. eigenvalues --   -0.56934  -0.56633  -0.56504  -0.56108  -0.55969
 Alpha  occ. eigenvalues --   -0.55728  -0.55289  -0.54924  -0.54845  -0.54460
 Alpha  occ. eigenvalues --   -0.54383  -0.54049  -0.53365  -0.52994  -0.52542
 Alpha  occ. eigenvalues --   -0.52477  -0.52468  -0.51995  -0.51302  -0.51259
 Alpha  occ. eigenvalues --   -0.51136  -0.51126  -0.50557  -0.49465  -0.49100
 Alpha  occ. eigenvalues --   -0.48548  -0.47988  -0.47408  -0.47317  -0.46044
 Alpha  occ. eigenvalues --   -0.45766  -0.45145  -0.44922  -0.43753  -0.43718
 Alpha  occ. eigenvalues --   -0.43386  -0.42443  -0.41856  -0.41242  -0.40727
 Alpha  occ. eigenvalues --   -0.40365  -0.39659  -0.37836  -0.36581  -0.35653
 Alpha  occ. eigenvalues --   -0.35161  -0.33664  -0.33579  -0.33351  -0.33256
 Alpha  occ. eigenvalues --   -0.32218  -0.29676  -0.29549  -0.29260  -0.28005
 Alpha virt. eigenvalues --   -0.03076  -0.00630  -0.00228   0.00665   0.00885
 Alpha virt. eigenvalues --    0.01822   0.01972   0.02429   0.03948   0.04362
 Alpha virt. eigenvalues --    0.04411   0.06215   0.06763   0.06934   0.08994
 Alpha virt. eigenvalues --    0.09086   0.09320   0.09653   0.10278   0.10457
 Alpha virt. eigenvalues --    0.11514   0.12856   0.13149   0.13653   0.14140
 Alpha virt. eigenvalues --    0.14328   0.14515   0.15208   0.15299   0.15869
 Alpha virt. eigenvalues --    0.15969   0.16678   0.17421   0.17928   0.18748
 Alpha virt. eigenvalues --    0.18765   0.19435   0.19561   0.19963   0.20426
 Alpha virt. eigenvalues --    0.20691   0.21554   0.21948   0.22204   0.22548
 Alpha virt. eigenvalues --    0.22633   0.23076   0.23348   0.23566   0.24793
 Alpha virt. eigenvalues --    0.25805   0.26055   0.26284   0.27058   0.27633
 Alpha virt. eigenvalues --    0.28225   0.29140   0.29835   0.29958   0.30304
 Alpha virt. eigenvalues --    0.30590   0.31065   0.31321   0.31845   0.32138
 Alpha virt. eigenvalues --    0.32258   0.32387   0.32952   0.33572   0.33858
 Alpha virt. eigenvalues --    0.34151   0.34551   0.34959   0.35259   0.35505
 Alpha virt. eigenvalues --    0.35740   0.35879   0.36107   0.36534   0.36617
 Alpha virt. eigenvalues --    0.37666   0.37774   0.38516   0.38708   0.39173
 Alpha virt. eigenvalues --    0.39992   0.40344   0.41294   0.41500   0.42061
 Alpha virt. eigenvalues --    0.42085   0.42416   0.42830   0.44052   0.44122
 Alpha virt. eigenvalues --    0.44658   0.45434   0.45902   0.46658   0.47142
 Alpha virt. eigenvalues --    0.47615   0.47851   0.48132   0.48198   0.48660
 Alpha virt. eigenvalues --    0.49957   0.50343   0.50642   0.50978   0.51237
 Alpha virt. eigenvalues --    0.51387   0.51830   0.52337   0.52571   0.52721
 Alpha virt. eigenvalues --    0.52929   0.53257   0.53613   0.54217   0.54538
 Alpha virt. eigenvalues --    0.54715   0.54938   0.55107   0.55695   0.56045
 Alpha virt. eigenvalues --    0.56169   0.56612   0.57290   0.57442   0.57612
 Alpha virt. eigenvalues --    0.58117   0.58841   0.59162   0.60149   0.60188
 Alpha virt. eigenvalues --    0.60481   0.60536   0.61090   0.61536   0.61562
 Alpha virt. eigenvalues --    0.61655   0.63253   0.63679   0.64164   0.64798
 Alpha virt. eigenvalues --    0.64871   0.65512   0.65575   0.66391   0.66852
 Alpha virt. eigenvalues --    0.67113   0.67513   0.67782   0.67969   0.68594
 Alpha virt. eigenvalues --    0.68666   0.69960   0.70448   0.70463   0.70836
 Alpha virt. eigenvalues --    0.71289   0.71713   0.71841   0.71962   0.72437
 Alpha virt. eigenvalues --    0.72723   0.72906   0.73015   0.73390   0.73444
 Alpha virt. eigenvalues --    0.73851   0.74055   0.74405   0.74728   0.74774
 Alpha virt. eigenvalues --    0.75330   0.75492   0.75676   0.75864   0.76425
 Alpha virt. eigenvalues --    0.76802   0.77012   0.77094   0.77676   0.78345
 Alpha virt. eigenvalues --    0.78429   0.78798   0.79081   0.79464   0.79631
 Alpha virt. eigenvalues --    0.80318   0.80483   0.80641   0.81156   0.81561
 Alpha virt. eigenvalues --    0.81687   0.81748   0.82534   0.82825   0.83703
 Alpha virt. eigenvalues --    0.83883   0.83943   0.84177   0.84540   0.84952
 Alpha virt. eigenvalues --    0.85264   0.85470   0.85590   0.86366   0.86931
 Alpha virt. eigenvalues --    0.86981   0.87336   0.87585   0.87834   0.88091
 Alpha virt. eigenvalues --    0.88431   0.89181   0.89271   0.90109   0.90252
 Alpha virt. eigenvalues --    0.90398   0.91416   0.91567   0.91687   0.92314
 Alpha virt. eigenvalues --    0.93825   0.94113   0.94329   0.94615   0.95171
 Alpha virt. eigenvalues --    0.95550   0.95790   0.96400   0.96946   0.97916
 Alpha virt. eigenvalues --    0.98167   0.98772   0.99049   0.99928   1.01484
 Alpha virt. eigenvalues --    1.01651   1.02258   1.03322   1.04783   1.04871
 Alpha virt. eigenvalues --    1.06583   1.07488   1.08880   1.09256   1.09530
 Alpha virt. eigenvalues --    1.10998   1.11360   1.13137   1.13662   1.14650
 Alpha virt. eigenvalues --    1.14825   1.15073   1.15865   1.16045   1.16211
 Alpha virt. eigenvalues --    1.16938   1.17831   1.18102   1.20811   1.21678
 Alpha virt. eigenvalues --    1.22020   1.22400   1.22965   1.24406   1.24560
 Alpha virt. eigenvalues --    1.24943   1.25173   1.25643   1.26220   1.26293
 Alpha virt. eigenvalues --    1.27537   1.27952   1.28438   1.28486   1.29549
 Alpha virt. eigenvalues --    1.29717   1.30258   1.30695   1.30740   1.30905
 Alpha virt. eigenvalues --    1.31493   1.32315   1.33092   1.33688   1.33904
 Alpha virt. eigenvalues --    1.34207   1.34448   1.34789   1.35322   1.35557
 Alpha virt. eigenvalues --    1.35868   1.35894   1.36200   1.37547   1.37661
 Alpha virt. eigenvalues --    1.38224   1.38351   1.38527   1.40217   1.40708
 Alpha virt. eigenvalues --    1.41966   1.42195   1.43184   1.43369   1.44535
 Alpha virt. eigenvalues --    1.45452   1.46747   1.48077   1.48182   1.49403
 Alpha virt. eigenvalues --    1.50470   1.54888   1.55601   1.55680   1.58904
 Alpha virt. eigenvalues --    1.59143   1.59874   1.62371   1.63632   1.64309
 Alpha virt. eigenvalues --    1.64908   1.65579   1.66562   1.67563   1.67771
 Alpha virt. eigenvalues --    1.68765   1.69733   1.70941   1.71703   1.72026
 Alpha virt. eigenvalues --    1.72837   1.73013   1.73258   1.73684   1.73806
 Alpha virt. eigenvalues --    1.74428   1.74744   1.75046   1.75481   1.76003
 Alpha virt. eigenvalues --    1.77225   1.77266   1.78099   1.78470   1.78660
 Alpha virt. eigenvalues --    1.78734   1.79401   1.79548   1.79943   1.80023
 Alpha virt. eigenvalues --    1.80389   1.80907   1.81462   1.81628   1.81806
 Alpha virt. eigenvalues --    1.81936   1.82092   1.82234   1.82643   1.82947
 Alpha virt. eigenvalues --    1.83416   1.84106   1.84305   1.84701   1.84877
 Alpha virt. eigenvalues --    1.85666   1.86099   1.86401   1.87096   1.87406
 Alpha virt. eigenvalues --    1.87653   1.87872   1.88295   1.89699   1.89770
 Alpha virt. eigenvalues --    1.90380   1.90390   1.91079   1.91255   1.91854
 Alpha virt. eigenvalues --    1.93363   1.94162   1.94321   1.95549   1.96081
 Alpha virt. eigenvalues --    1.96776   1.97089   1.97576   1.98314   1.99282
 Alpha virt. eigenvalues --    1.99393   2.00592   2.01150   2.01431   2.02199
 Alpha virt. eigenvalues --    2.02565   2.02832   2.03215   2.03866   2.04510
 Alpha virt. eigenvalues --    2.04823   2.04995   2.05423   2.05736   2.06136
 Alpha virt. eigenvalues --    2.06932   2.07932   2.09213   2.10064   2.10351
 Alpha virt. eigenvalues --    2.10929   2.11070   2.11842   2.12283   2.13921
 Alpha virt. eigenvalues --    2.14631   2.15517   2.15827   2.16619   2.16713
 Alpha virt. eigenvalues --    2.16847   2.17878   2.18161   2.18593   2.19587
 Alpha virt. eigenvalues --    2.20334   2.20567   2.20889   2.21319   2.21566
 Alpha virt. eigenvalues --    2.23282   2.23569   2.24386   2.24518   2.25804
 Alpha virt. eigenvalues --    2.26114   2.29375   2.29968   2.30736   2.31367
 Alpha virt. eigenvalues --    2.31467   2.31667   2.32816   2.33451   2.34419
 Alpha virt. eigenvalues --    2.34998   2.35841   2.36062   2.36678   2.37392
 Alpha virt. eigenvalues --    2.37640   2.37773   2.38133   2.38452   2.38836
 Alpha virt. eigenvalues --    2.39566   2.39696   2.41342   2.41779   2.42684
 Alpha virt. eigenvalues --    2.44068   2.45206   2.45228   2.46164   2.46720
 Alpha virt. eigenvalues --    2.47509   2.48025   2.49901   2.49977   2.50723
 Alpha virt. eigenvalues --    2.53627   2.54879   2.56235   2.57333   2.59230
 Alpha virt. eigenvalues --    2.60219   2.60991   2.61535   2.63769   2.64677
 Alpha virt. eigenvalues --    2.65770   2.65964   2.66728   2.67003   2.67568
 Alpha virt. eigenvalues --    2.67639   2.68242   2.69480   2.69821   2.69877
 Alpha virt. eigenvalues --    2.70036   2.70324   2.70409   2.70880   2.71112
 Alpha virt. eigenvalues --    2.72109   2.72445   2.72722   2.74321   2.74770
 Alpha virt. eigenvalues --    2.75734   2.77000   2.79229   2.79452   2.80058
 Alpha virt. eigenvalues --    2.80123   2.80338   2.80466   2.81823   2.82261
 Alpha virt. eigenvalues --    2.84525   2.85247   2.85778   2.86411   2.87058
 Alpha virt. eigenvalues --    2.87178   2.89627   2.91418   2.91873   2.94574
 Alpha virt. eigenvalues --    2.95897   2.97860   2.98467   2.99080   3.01340
 Alpha virt. eigenvalues --    3.02742   3.05011   3.05836   3.06159   3.07096
 Alpha virt. eigenvalues --    3.08634   3.09703   3.10251   3.11771   3.12513
 Alpha virt. eigenvalues --    3.15831   3.16231   3.19169   3.19723   3.20319
 Alpha virt. eigenvalues --    3.20725   3.20960   3.21892   3.22245   3.24163
 Alpha virt. eigenvalues --    3.24722   3.29757   3.29915   3.32662   3.32887
 Alpha virt. eigenvalues --    3.38115   3.39038   3.41615   3.45670   3.45952
 Alpha virt. eigenvalues --    3.47220   3.50717   3.52353   3.55487   3.58476
 Alpha virt. eigenvalues --    3.60568   3.62394   3.63151   3.63233   3.63509
 Alpha virt. eigenvalues --    3.63827   3.65784   3.66479   3.71965   3.72712
 Alpha virt. eigenvalues --    3.75731   3.75935   3.76575   3.78847   3.79450
 Alpha virt. eigenvalues --    3.82130   3.85097   3.92417   3.95062   4.02492
 Alpha virt. eigenvalues --    4.08528
 Electronic spatial extent (au):  <R**2>=          25433.6025
 Charge=              0.0000 electrons
 Dipole moment (field-independent basis, Debye):
    X=             19.7658    Y=             14.4260    Z=              0.2459  Tot=             24.4715
 Quadrupole moment (field-independent basis, Debye-Ang):
   XX=           -308.2010   YY=           -250.2929   ZZ=           -219.8952
   XY=            -55.8826   XZ=             -1.6747   YZ=             -1.4348
 Traceless Quadrupole moment (field-independent basis, Debye-Ang):
   XX=            -48.7380   YY=              9.1702   ZZ=             39.5678
   XY=            -55.8826   XZ=             -1.6747   YZ=             -1.4348
 Octapole moment (field-independent basis, Debye-Ang**2):
  XXX=            512.4482  YYY=            116.1054  ZZZ=              1.9759  XYY=           -130.6877
  XXY=            290.7018  XXZ=             12.2610  XZZ=             49.7706  YZZ=             10.7649
  YYZ=             -2.9586  XYZ=            -10.4954
 Hexadecapole moment (field-independent basis, Debye-Ang**3):
 XXXX=         -19177.8151 YYYY=          -7166.2361 ZZZZ=          -5533.8569 XXXY=          -1221.8947
 XXXZ=            -63.8958 YYYX=           -623.4147 YYYZ=             13.5597 ZZZX=             11.9146
 ZZZY=            -32.1634 XXYY=          -4544.7706 XXZZ=          -3815.2894 YYZZ=          -2544.3308
 XXYZ=             17.9188 YYXZ=            -30.3764 ZZXY=            133.4860
 N-N= 5.860120148143D+03 E-N=-2.454764212014D+04  KE= 5.399270001254D+03
 D1PCM: PCM CHGder 1st derivatives, ID1Alg=3 FixD1E=F DoIter=F DoCFld=F I1PDM=0.
 Calling FoFJK, ICntrl=      2127 FMM=T ISym2X=0 I1Cent= 0 IOpClX= 0 NMat=1 NMatS=1 NMatT=0.
 -------------------------------------------------------------------
 Center     Atomic                   Forces (Hartrees/Bohr)
 Number     Number              X              Y              Z
 -------------------------------------------------------------------
      1       25          -0.000069311   -0.000052460    0.000093085
      2        6           0.000022432   -0.000027220   -0.000009257
      3        8          -0.000005557    0.000010287    0.000001188
      4        6           0.000017493   -0.000073786   -0.000029162
      5        8           0.000006307   -0.000010077    0.000003101
      6        6           0.000002234   -0.000037951   -0.000036112
      7        7          -0.000123295    0.000016447   -0.000080500
      8        6          -0.000009584   -0.000051854    0.000035578
      9        6           0.000003206    0.000004668    0.000017438
     10        6           0.000037846   -0.000000571   -0.000017708
     11        1          -0.000015428    0.000020629   -0.000017849
     12        1           0.000000673    0.000002588   -0.000000581
     13        7           0.000207799    0.000076179   -0.000057251
     14        6          -0.000094119    0.000023326    0.000102288
     15        6          -0.000048527   -0.000009346   -0.000038537
     16        6          -0.000035997    0.000003315   -0.000015626
     17        6          -0.000006375   -0.000016357    0.000001495
     18        6          -0.000182890    0.000091255    0.000097574
     19        1           0.000004439   -0.000014516   -0.000004697
     20        1           0.000230903   -0.000085189   -0.000099877
     21        7          -0.000046127    0.000024991   -0.000003183
     22        6          -0.000000598   -0.000030884   -0.000011499
     23        6           0.000003206    0.000011234   -0.000004980
     24        1          -0.000045356   -0.000015128    0.000039884
     25        6          -0.000004674   -0.000013478   -0.000008230
     26        1          -0.000005345   -0.000008057   -0.000001696
     27        6           0.000029658    0.000016046    0.000004332
     28        1           0.000008105   -0.000003828   -0.000008600
     29        1          -0.000005982   -0.000000779    0.000001652
     30        8           0.000003565    0.000020121    0.000013478
     31        6          -0.000009408    0.000075582    0.000118283
     32        6           0.000019598    0.000024982   -0.000046533
     33        6           0.000012061    0.000025073    0.000020510
     34        6           0.000026927    0.000020021   -0.000030574
     35        6          -0.000008493    0.000006772   -0.000003876
     36        6          -0.000000399    0.000005529    0.000008992
     37        6           0.000008607    0.000005452   -0.000007595
     38        6          -0.000017575   -0.000010200    0.000022892
     39        6          -0.000024582    0.000012973   -0.000032984
     40        1          -0.000000199    0.000002084    0.000002253
     41        1           0.000004277    0.000004791    0.000003746
     42        1           0.000003443    0.000005040   -0.000002320
     43        6           0.000006436   -0.000013933    0.000025805
     44        6           0.000009006   -0.000007036    0.000000272
     45        6           0.000001831    0.000003747   -0.000004679
     46        6          -0.000005570    0.000005763    0.000000148
     47        6           0.000001969    0.000002476    0.000009002
     48        6           0.000007084    0.000015851   -0.000029923
     49        1          -0.000003602    0.000005094    0.000000054
     50        1           0.000000634    0.000006449    0.000000280
     51        1          -0.000004524    0.000002861   -0.000002579
     52        6          -0.000003276   -0.000009682   -0.000014051
     53        1           0.000001303    0.000002838   -0.000003307
     54        6           0.000000898   -0.000021346   -0.000000480
     55        1           0.000003398    0.000003168   -0.000004186
     56        1          -0.000002172    0.000005489    0.000001572
     57        6          -0.000004174   -0.000006193    0.000003668
     58        6           0.000001088    0.000011255    0.000000562
     59        1          -0.000003383   -0.000008616    0.000001626
     60        1          -0.000005113   -0.000007509   -0.000001922
     61       35           0.000002472    0.000024918    0.000010429
     62        1           0.000050805    0.000004376   -0.000022606
     63        1           0.000051930   -0.000067678    0.000011775
 -------------------------------------------------------------------
 Cartesian Forces:  Max     0.000230903 RMS     0.000040567
 NDeriv=    189 NFrqRd=  0 NDerD0=      0 MskFDP=       0 MskDFD=       0 MskDF0=       0
 Re-enter D2Numr:  atom  63 IXYZ=2 step-up   number 1
 Basis read from rwf:  (5D, 7F)
   751 basis functions,  1339 primitive gaussians,   802 cartesian basis functions
   165 alpha electrons      165 beta electrons
       nuclear repulsion energy      5860.1887437644 Hartrees.
 NAtoms=   63 NActive=   63 NUniq=   63 SFac= 1.00D+00 NAtFMM=   60 NAOKFM=T Big=T
 Integral buffers will be    131072 words long.
 Raffenetti 2 integral format.
 Two-electron integral symmetry is turned off.
 Nuclear repulsion after empirical dispersion term =     5860.1256748724 Hartrees.
 ------------------------------------------------------------------------------
 Polarizable Continuum Model (PCM)
 =================================
 Model                : PCM.
 Atomic radii         : UFF (Universal Force Field).
 Polarization charges : Total charges.
 Charge compensation  : None.
 Solution method      : On-the-fly selection.
 Cavity type          : Scaled VdW (van der Waals Surface) (Alpha=1.100).
 Cavity algorithm     : GePol (No added spheres)
                        Default sphere list used, NSphG=   63.
                        Lebedev-Laikov grids with approx.  5.0 points / Ang**2.
                        Smoothing algorithm: York/Karplus (Gamma=1.0000).
                        Polarization charges: spherical gaussians, with
                                              point-specific exponents (IZeta= 3).
                        Self-potential: point-specific (ISelfS= 7).
                        Self-field    : sphere-specific E.n sum rule (ISelfD= 2).
 1st derivatives      : Analytical E(r).r(x)/FMM algorithm (CHGder, D1EAlg=3).
                        Cavity 1st derivative terms included.
 Solvent              : TetraHydroFuran, Eps=   7.425700 Eps(inf)=   1.974025
 ------------------------------------------------------------------------------
 One-electron integrals computed using PRISM.
 NBasis=   751 RedAO= T EigKep=  2.24D-04  NBF=   751
 NBsUse=   751 1.00D-06 EigRej= -1.00D+00 NBFU=   751
 Initial guess from the checkpoint file:  "checkpoint.chk"
 B after Tr=    -0.000000   -0.000006   -0.000000
         Rot=    1.000000   -0.000000   -0.000000    0.000000 Ang=   0.00 deg.
 Requested convergence on RMS density matrix=1.00D-08 within 128 cycles.
 Requested convergence on MAX density matrix=1.00D-06.
 Requested convergence on             energy=1.00D-06.
 No special actions if energy rises.
 Inv3:  Mode=1 IEnd=    73864332.
 Iteration    1 A*A^-1 deviation from unit magnitude is 3.00D-15 for    768.
 Iteration    1 A*A^-1 deviation from orthogonality  is 1.95D-15 for   2248    157.
 Iteration    1 A^-1*A deviation from unit magnitude is 2.89D-15 for   1637.
 Iteration    1 A^-1*A deviation from orthogonality  is 1.89D-15 for   4642   1660.
 Error on total polarization charges =  0.02143
 SCF Done:  E(RwB97XD) =  -5421.44460097     A.U. after    6 cycles
            NFock=  6  Conv=0.65D-08     -V/T= 2.0041

 **********************************************************************

            Population analysis using the SCF density.

 **********************************************************************

 Alpha  occ. eigenvalues -- -482.95450-235.70868 -62.53491 -56.34054 -56.34042
 Alpha  occ. eigenvalues --  -56.34037 -27.47536 -23.53468 -23.53109 -23.53047
 Alpha  occ. eigenvalues --  -19.34579 -19.34549 -19.34480 -14.50816 -14.50809
 Alpha  occ. eigenvalues --  -14.46642 -10.42153 -10.42149 -10.42107 -10.37155
 Alpha  occ. eigenvalues --  -10.37146 -10.36612 -10.36597 -10.36290 -10.35591
 Alpha  occ. eigenvalues --  -10.34658 -10.34642 -10.34560 -10.34550 -10.33579
 Alpha  occ. eigenvalues --  -10.33563 -10.33446 -10.33343 -10.33330 -10.33279
 Alpha  occ. eigenvalues --  -10.33273 -10.33252 -10.32880 -10.32874 -10.32638
 Alpha  occ. eigenvalues --  -10.32390 -10.32331 -10.32322 -10.32278 -10.32115
 Alpha  occ. eigenvalues --  -10.32031 -10.32002 -10.31995 -10.31849 -10.31845
 Alpha  occ. eigenvalues --   -8.70244  -6.51946  -6.51911  -6.51893  -3.26993
 Alpha  occ. eigenvalues --   -2.62450  -2.62444  -2.62430  -2.62402  -2.62400
 Alpha  occ. eigenvalues --   -2.12858  -2.11934  -2.11838  -1.23595  -1.23522
 Alpha  occ. eigenvalues --   -1.23338  -1.08601  -1.08293  -1.02155  -1.00303
 Alpha  occ. eigenvalues --   -0.97878  -0.97632  -0.94480  -0.93281  -0.91393
 Alpha  occ. eigenvalues --   -0.90867  -0.89860  -0.88166  -0.87492  -0.86416
 Alpha  occ. eigenvalues --   -0.85280  -0.85010  -0.81929  -0.76800  -0.75890
 Alpha  occ. eigenvalues --   -0.75417  -0.75397  -0.74764  -0.74595  -0.74404
 Alpha  occ. eigenvalues --   -0.72311  -0.72000  -0.70290  -0.69013  -0.68211
 Alpha  occ. eigenvalues --   -0.65748  -0.65265  -0.65173  -0.64939  -0.64543
 Alpha  occ. eigenvalues --   -0.64525  -0.62675  -0.62128  -0.61074  -0.60185
 Alpha  occ. eigenvalues --   -0.59149  -0.58430  -0.57661  -0.57535  -0.57259
 Alpha  occ. eigenvalues --   -0.56934  -0.56634  -0.56504  -0.56108  -0.55969
 Alpha  occ. eigenvalues --   -0.55729  -0.55289  -0.54925  -0.54846  -0.54461
 Alpha  occ. eigenvalues --   -0.54384  -0.54049  -0.53365  -0.52994  -0.52542
 Alpha  occ. eigenvalues --   -0.52476  -0.52469  -0.51995  -0.51304  -0.51259
 Alpha  occ. eigenvalues --   -0.51137  -0.51127  -0.50557  -0.49464  -0.49102
 Alpha  occ. eigenvalues --   -0.48548  -0.47988  -0.47408  -0.47317  -0.46044
 Alpha  occ. eigenvalues --   -0.45766  -0.45145  -0.44923  -0.43753  -0.43718
 Alpha  occ. eigenvalues --   -0.43386  -0.42442  -0.41857  -0.41242  -0.40728
 Alpha  occ. eigenvalues --   -0.40365  -0.39661  -0.37837  -0.36580  -0.35653
 Alpha  occ. eigenvalues --   -0.35161  -0.33665  -0.33579  -0.33351  -0.33256
 Alpha  occ. eigenvalues --   -0.32218  -0.29676  -0.29549  -0.29260  -0.28006
 Alpha virt. eigenvalues --   -0.03076  -0.00631  -0.00228   0.00665   0.00884
 Alpha virt. eigenvalues --    0.01822   0.01972   0.02429   0.03948   0.04362
 Alpha virt. eigenvalues --    0.04411   0.06215   0.06763   0.06933   0.08994
 Alpha virt. eigenvalues --    0.09086   0.09321   0.09653   0.10278   0.10457
 Alpha virt. eigenvalues --    0.11514   0.12856   0.13150   0.13653   0.14140
 Alpha virt. eigenvalues --    0.14329   0.14515   0.15208   0.15299   0.15869
 Alpha virt. eigenvalues --    0.15969   0.16678   0.17421   0.17929   0.18748
 Alpha virt. eigenvalues --    0.18765   0.19434   0.19562   0.19967   0.20426
 Alpha virt. eigenvalues --    0.20692   0.21554   0.21947   0.22204   0.22550
 Alpha virt. eigenvalues --    0.22634   0.23076   0.23348   0.23566   0.24794
 Alpha virt. eigenvalues --    0.25805   0.26055   0.26284   0.27059   0.27633
 Alpha virt. eigenvalues --    0.28224   0.29140   0.29835   0.29958   0.30304
 Alpha virt. eigenvalues --    0.30590   0.31065   0.31321   0.31845   0.32138
 Alpha virt. eigenvalues --    0.32258   0.32387   0.32952   0.33573   0.33858
 Alpha virt. eigenvalues --    0.34155   0.34552   0.34959   0.35259   0.35505
 Alpha virt. eigenvalues --    0.35739   0.35879   0.36107   0.36534   0.36617
 Alpha virt. eigenvalues --    0.37668   0.37773   0.38516   0.38708   0.39172
 Alpha virt. eigenvalues --    0.39992   0.40345   0.41294   0.41500   0.42061
 Alpha virt. eigenvalues --    0.42084   0.42416   0.42829   0.44052   0.44123
 Alpha virt. eigenvalues --    0.44658   0.45434   0.45902   0.46663   0.47142
 Alpha virt. eigenvalues --    0.47615   0.47851   0.48131   0.48198   0.48660
 Alpha virt. eigenvalues --    0.49957   0.50343   0.50642   0.50978   0.51237
 Alpha virt. eigenvalues --    0.51387   0.51829   0.52338   0.52572   0.52721
 Alpha virt. eigenvalues --    0.52929   0.53259   0.53613   0.54217   0.54538
 Alpha virt. eigenvalues --    0.54715   0.54938   0.55107   0.55695   0.56045
 Alpha virt. eigenvalues --    0.56169   0.56612   0.57290   0.57442   0.57611
 Alpha virt. eigenvalues --    0.58117   0.58841   0.59171   0.60150   0.60189
 Alpha virt. eigenvalues --    0.60482   0.60537   0.61090   0.61536   0.61562
 Alpha virt. eigenvalues --    0.61655   0.63251   0.63679   0.64163   0.64796
 Alpha virt. eigenvalues --    0.64870   0.65513   0.65575   0.66391   0.66852
 Alpha virt. eigenvalues --    0.67113   0.67512   0.67782   0.67969   0.68594
 Alpha virt. eigenvalues --    0.68664   0.69960   0.70448   0.70464   0.70838
 Alpha virt. eigenvalues --    0.71289   0.71714   0.71841   0.71962   0.72437
 Alpha virt. eigenvalues --    0.72724   0.72906   0.73016   0.73390   0.73444
 Alpha virt. eigenvalues --    0.73851   0.74055   0.74409   0.74729   0.74775
 Alpha virt. eigenvalues --    0.75331   0.75492   0.75676   0.75864   0.76425
 Alpha virt. eigenvalues --    0.76803   0.77011   0.77094   0.77678   0.78345
 Alpha virt. eigenvalues --    0.78428   0.78798   0.79082   0.79463   0.79631
 Alpha virt. eigenvalues --    0.80318   0.80483   0.80641   0.81157   0.81563
 Alpha virt. eigenvalues --    0.81687   0.81748   0.82534   0.82828   0.83703
 Alpha virt. eigenvalues --    0.83883   0.83944   0.84181   0.84542   0.84952
 Alpha virt. eigenvalues --    0.85264   0.85470   0.85590   0.86366   0.86933
 Alpha virt. eigenvalues --    0.86982   0.87336   0.87584   0.87834   0.88091
 Alpha virt. eigenvalues --    0.88433   0.89182   0.89270   0.90109   0.90253
 Alpha virt. eigenvalues --    0.90399   0.91416   0.91567   0.91687   0.92314
 Alpha virt. eigenvalues --    0.93825   0.94113   0.94330   0.94615   0.95171
 Alpha virt. eigenvalues --    0.95552   0.95791   0.96400   0.96944   0.97916
 Alpha virt. eigenvalues --    0.98167   0.98770   0.99050   0.99927   1.01484
 Alpha virt. eigenvalues --    1.01650   1.02258   1.03322   1.04782   1.04870
 Alpha virt. eigenvalues --    1.06583   1.07488   1.08880   1.09257   1.09530
 Alpha virt. eigenvalues --    1.10998   1.11360   1.13140   1.13667   1.14650
 Alpha virt. eigenvalues --    1.14826   1.15071   1.15867   1.16047   1.16211
 Alpha virt. eigenvalues --    1.16943   1.17831   1.18102   1.20812   1.21678
 Alpha virt. eigenvalues --    1.22019   1.22397   1.22963   1.24406   1.24561
 Alpha virt. eigenvalues --    1.24947   1.25173   1.25643   1.26221   1.26292
 Alpha virt. eigenvalues --    1.27537   1.27951   1.28436   1.28486   1.29548
 Alpha virt. eigenvalues --    1.29717   1.30257   1.30695   1.30740   1.30906
 Alpha virt. eigenvalues --    1.31491   1.32315   1.33091   1.33686   1.33903
 Alpha virt. eigenvalues --    1.34207   1.34448   1.34787   1.35318   1.35557
 Alpha virt. eigenvalues --    1.35873   1.35894   1.36200   1.37547   1.37660
 Alpha virt. eigenvalues --    1.38224   1.38354   1.38528   1.40217   1.40708
 Alpha virt. eigenvalues --    1.41967   1.42174   1.43183   1.43370   1.44535
 Alpha virt. eigenvalues --    1.45461   1.46745   1.48076   1.48168   1.49403
 Alpha virt. eigenvalues --    1.50469   1.54891   1.55600   1.55677   1.58904
 Alpha virt. eigenvalues --    1.59143   1.59896   1.62372   1.63630   1.64306
 Alpha virt. eigenvalues --    1.64907   1.65578   1.66557   1.67562   1.67775
 Alpha virt. eigenvalues --    1.68765   1.69726   1.70941   1.71703   1.72026
 Alpha virt. eigenvalues --    1.72838   1.73013   1.73258   1.73684   1.73806
 Alpha virt. eigenvalues --    1.74427   1.74743   1.75046   1.75480   1.76003
 Alpha virt. eigenvalues --    1.77226   1.77266   1.78099   1.78468   1.78660
 Alpha virt. eigenvalues --    1.78735   1.79399   1.79548   1.79944   1.80021
 Alpha virt. eigenvalues --    1.80389   1.80906   1.81462   1.81627   1.81806
 Alpha virt. eigenvalues --    1.81931   1.82092   1.82234   1.82644   1.82947
 Alpha virt. eigenvalues --    1.83416   1.84105   1.84305   1.84701   1.84876
 Alpha virt. eigenvalues --    1.85666   1.86099   1.86402   1.87098   1.87406
 Alpha virt. eigenvalues --    1.87654   1.87872   1.88296   1.89698   1.89766
 Alpha virt. eigenvalues --    1.90380   1.90389   1.91078   1.91254   1.91852
 Alpha virt. eigenvalues --    1.93363   1.94161   1.94322   1.95549   1.96082
 Alpha virt. eigenvalues --    1.96776   1.97086   1.97573   1.98315   1.99282
 Alpha virt. eigenvalues --    1.99392   2.00592   2.01155   2.01432   2.02200
 Alpha virt. eigenvalues --    2.02569   2.02834   2.03216   2.03867   2.04510
 Alpha virt. eigenvalues --    2.04823   2.04996   2.05423   2.05737   2.06135
 Alpha virt. eigenvalues --    2.06933   2.07932   2.09215   2.10063   2.10350
 Alpha virt. eigenvalues --    2.10929   2.11070   2.11852   2.12284   2.13927
 Alpha virt. eigenvalues --    2.14628   2.15516   2.15828   2.16622   2.16716
 Alpha virt. eigenvalues --    2.16847   2.17883   2.18163   2.18592   2.19589
 Alpha virt. eigenvalues --    2.20334   2.20568   2.20887   2.21319   2.21566
 Alpha virt. eigenvalues --    2.23278   2.23581   2.24381   2.24515   2.25805
 Alpha virt. eigenvalues --    2.26114   2.29375   2.29965   2.30736   2.31367
 Alpha virt. eigenvalues --    2.31463   2.31666   2.32814   2.33451   2.34415
 Alpha virt. eigenvalues --    2.34998   2.35842   2.36062   2.36679   2.37392
 Alpha virt. eigenvalues --    2.37641   2.37771   2.38134   2.38457   2.38837
 Alpha virt. eigenvalues --    2.39565   2.39701   2.41342   2.41779   2.42684
 Alpha virt. eigenvalues --    2.44072   2.45206   2.45227   2.46164   2.46726
 Alpha virt. eigenvalues --    2.47510   2.48034   2.49901   2.49976   2.50719
 Alpha virt. eigenvalues --    2.53627   2.54882   2.56237   2.57333   2.59230
 Alpha virt. eigenvalues --    2.60222   2.60990   2.61535   2.63767   2.64675
 Alpha virt. eigenvalues --    2.65772   2.65965   2.66727   2.67004   2.67570
 Alpha virt. eigenvalues --    2.67639   2.68239   2.69480   2.69821   2.69877
 Alpha virt. eigenvalues --    2.70036   2.70324   2.70408   2.70880   2.71112
 Alpha virt. eigenvalues --    2.72104   2.72444   2.72721   2.74324   2.74770
 Alpha virt. eigenvalues --    2.75739   2.77000   2.79232   2.79456   2.80058
 Alpha virt. eigenvalues --    2.80124   2.80337   2.80466   2.81825   2.82261
 Alpha virt. eigenvalues --    2.84526   2.85251   2.85776   2.86413   2.87058
 Alpha virt. eigenvalues --    2.87178   2.89628   2.91418   2.91873   2.94574
 Alpha virt. eigenvalues --    2.95898   2.97867   2.98470   2.99080   3.01341
 Alpha virt. eigenvalues --    3.02742   3.05012   3.05841   3.06159   3.07096
 Alpha virt. eigenvalues --    3.08635   3.09704   3.10251   3.11777   3.12512
 Alpha virt. eigenvalues --    3.15832   3.16231   3.19168   3.19722   3.20318
 Alpha virt. eigenvalues --    3.20738   3.20963   3.21892   3.22245   3.24163
 Alpha virt. eigenvalues --    3.24722   3.29756   3.29915   3.32662   3.32889
 Alpha virt. eigenvalues --    3.38115   3.39038   3.41617   3.45670   3.45952
 Alpha virt. eigenvalues --    3.47220   3.50719   3.52353   3.55487   3.58476
 Alpha virt. eigenvalues --    3.60568   3.62393   3.63151   3.63233   3.63510
 Alpha virt. eigenvalues --    3.63826   3.65785   3.66480   3.71965   3.72714
 Alpha virt. eigenvalues --    3.75731   3.75935   3.76575   3.78847   3.79450
 Alpha virt. eigenvalues --    3.82130   3.85097   3.92417   3.95062   4.02492
 Alpha virt. eigenvalues --    4.08528
 Electronic spatial extent (au):  <R**2>=          25433.5893
 Charge=              0.0000 electrons
 Dipole moment (field-independent basis, Debye):
    X=             19.7656    Y=             14.4248    Z=              0.2459  Tot=             24.4707
 Quadrupole moment (field-independent basis, Debye-Ang):
   XX=           -308.1986   YY=           -250.2940   ZZ=           -219.8922
   XY=            -55.8840   XZ=             -1.6748   YZ=             -1.4349
 Traceless Quadrupole moment (field-independent basis, Debye-Ang):
   XX=            -48.7370   YY=              9.1676   ZZ=             39.5694
   XY=            -55.8840   XZ=             -1.6748   YZ=             -1.4349
 Octapole moment (field-independent basis, Debye-Ang**2):
  XXX=            512.4624  YYY=            116.1060  ZZZ=              1.9763  XYY=           -130.6914
  XXY=            290.7017  XXZ=             12.2606  XZZ=             49.7737  YZZ=             10.7685
  YYZ=             -2.9588  XYZ=            -10.4956
 Hexadecapole moment (field-independent basis, Debye-Ang**3):
 XXXX=         -19177.6927 YYYY=          -7166.2162 ZZZZ=          -5533.8092 XXXY=          -1221.8617
 XXXZ=            -63.8981 YYYX=           -623.4055 YYYZ=             13.5595 ZZZX=             11.9143
 ZZZY=            -32.1641 XXYY=          -4544.7674 XXZZ=          -3815.2677 YYZZ=          -2544.3224
 XXYZ=             17.9180 YYXZ=            -30.3766 ZZXY=            133.4926
 N-N= 5.860125674872D+03 E-N=-2.454765314217D+04  KE= 5.399270296556D+03
 D1PCM: PCM CHGder 1st derivatives, ID1Alg=3 FixD1E=F DoIter=F DoCFld=F I1PDM=0.
 Calling FoFJK, ICntrl=      2127 FMM=T ISym2X=0 I1Cent= 0 IOpClX= 0 NMat=1 NMatS=1 NMatT=0.
 -------------------------------------------------------------------
 Center     Atomic                   Forces (Hartrees/Bohr)
 Number     Number              X              Y              Z
 -------------------------------------------------------------------
      1       25          -0.000069323   -0.000051833    0.000093096
      2        6           0.000021899   -0.000027868   -0.000010015
      3        8          -0.000005229    0.000010669    0.000001708
      4        6           0.000016980   -0.000074475   -0.000028469
      5        8           0.000006616   -0.000009671    0.000002618
      6        6           0.000002693   -0.000038589   -0.000036144
      7        7          -0.000125407    0.000016395   -0.000080368
      8        6          -0.000008137   -0.000051392    0.000035916
      9        6           0.000001877    0.000004789    0.000017261
     10        6           0.000034275   -0.000003750   -0.000009985
     11        1          -0.000015382    0.000020556   -0.000017853
     12        1           0.000000756    0.000002389   -0.000000579
     13        7           0.000207898    0.000076000   -0.000057240
     14        6          -0.000094215    0.000023584    0.000102299
     15        6          -0.000048493   -0.000009381   -0.000038542
     16        6          -0.000035881    0.000003246   -0.000015646
     17        6          -0.000006420   -0.000016376    0.000001496
     18        6          -0.000182864    0.000091218    0.000097571
     19        1           0.000004416   -0.000014534   -0.000004680
     20        1           0.000230899   -0.000085169   -0.000099877
     21        7          -0.000048145    0.000024949   -0.000003324
     22        6           0.000000767   -0.000030411   -0.000011735
     23        6           0.000001952    0.000011288   -0.000004850
     24        1          -0.000045310   -0.000015199    0.000039887
     25        6          -0.000004492   -0.000014422   -0.000009398
     26        1          -0.000005307   -0.000008086   -0.000001808
     27        6           0.000029828    0.000015073    0.000005387
     28        1           0.000008152   -0.000003859   -0.000008505
     29        1          -0.000005970   -0.000000787    0.000001653
     30        8           0.000003130    0.000020529    0.000013492
     31        6           0.000103064   -0.000070696    0.000120638
     32        6           0.000017163    0.000021320   -0.000046627
     33        6           0.000012583    0.000023204    0.000024970
     34        6           0.000025556    0.000006436   -0.000029845
     35        6          -0.000009839    0.000006764   -0.000005598
     36        6           0.000000694    0.000004150    0.000008625
     37        6           0.000009638    0.000005521   -0.000007629
     38        6          -0.000018419    0.000012694    0.000027111
     39        6          -0.000021399    0.000029124   -0.000040970
     40        1          -0.000000340    0.000003462    0.000002327
     41        1           0.000004202    0.000004977    0.000003718
     42        1           0.000003457    0.000005993   -0.000002045
     43        6           0.000001904    0.000001827    0.000033709
     44        6           0.000007901    0.000016168   -0.000000927
     45        6           0.000002494    0.000003770   -0.000004778
     46        6          -0.000004458    0.000004372    0.000000404
     47        6           0.000000576    0.000002322    0.000010691
     48        6           0.000005715    0.000002345   -0.000031728
     49        1          -0.000003642    0.000006063   -0.000000061
     50        1           0.000000567    0.000006637    0.000000330
     51        1          -0.000004670    0.000004243   -0.000002565
     52        6          -0.000002872   -0.000010511   -0.000017753
     53        1           0.000001387    0.000002639   -0.000003327
     54        6          -0.000002650   -0.000023351   -0.000008530
     55        1           0.000002356   -0.000001202   -0.000007413
     56        1          -0.000002965    0.000001000    0.000004342
     57        6          -0.000004158   -0.000006188    0.000003667
     58        6           0.000001072    0.000011212    0.000000564
     59        1          -0.000003393   -0.000008613    0.000001628
     60        1          -0.000005122   -0.000007499   -0.000001920
     61       35           0.000002648    0.000024871    0.000010429
     62        1           0.000051030    0.000001043   -0.000022740
     63        1          -0.000041643    0.000051022    0.000007936
 -------------------------------------------------------------------
 Cartesian Forces:  Max     0.000230899 RMS     0.000041160
 NDeriv=    189 NFrqRd=  0 NDerD0=      0 MskFDP=       0 MskDFD=       0 MskDF0=       0
 Re-enter D2Numr:  atom  63 IXYZ=2 step-down number 1
 Basis read from rwf:  (5D, 7F)
   751 basis functions,  1339 primitive gaussians,   802 cartesian basis functions
   165 alpha electrons      165 beta electrons
       nuclear repulsion energy      5860.1858861679 Hartrees.
 NAtoms=   63 NActive=   63 NUniq=   63 SFac= 1.00D+00 NAtFMM=   60 NAOKFM=T Big=T
 Integral buffers will be    131072 words long.
 Raffenetti 2 integral format.
 Two-electron integral symmetry is turned off.
 Nuclear repulsion after empirical dispersion term =     5860.1228172044 Hartrees.
 ------------------------------------------------------------------------------
 Polarizable Continuum Model (PCM)
 =================================
 Model                : PCM.
 Atomic radii         : UFF (Universal Force Field).
 Polarization charges : Total charges.
 Charge compensation  : None.
 Solution method      : On-the-fly selection.
 Cavity type          : Scaled VdW (van der Waals Surface) (Alpha=1.100).
 Cavity algorithm     : GePol (No added spheres)
                        Default sphere list used, NSphG=   63.
                        Lebedev-Laikov grids with approx.  5.0 points / Ang**2.
                        Smoothing algorithm: York/Karplus (Gamma=1.0000).
                        Polarization charges: spherical gaussians, with
                                              point-specific exponents (IZeta= 3).
                        Self-potential: point-specific (ISelfS= 7).
                        Self-field    : sphere-specific E.n sum rule (ISelfD= 2).
 1st derivatives      : Analytical E(r).r(x)/FMM algorithm (CHGder, D1EAlg=3).
                        Cavity 1st derivative terms included.
 Solvent              : TetraHydroFuran, Eps=   7.425700 Eps(inf)=   1.974025
 ------------------------------------------------------------------------------
 One-electron integrals computed using PRISM.
 NBasis=   751 RedAO= T EigKep=  2.24D-04  NBF=   751
 NBsUse=   751 1.00D-06 EigRej= -1.00D+00 NBFU=   751
 Initial guess from the checkpoint file:  "checkpoint.chk"
 B after Tr=     0.000000    0.000000    0.000006
         Rot=    1.000000   -0.000000    0.000000   -0.000000 Ang=  -0.00 deg.
 Requested convergence on RMS density matrix=1.00D-08 within 128 cycles.
 Requested convergence on MAX density matrix=1.00D-06.
 Requested convergence on             energy=1.00D-06.
 No special actions if energy rises.
 Inv3:  Mode=1 IEnd=    73864332.
 Iteration    1 A*A^-1 deviation from unit magnitude is 3.77D-15 for   1633.
 Iteration    1 A*A^-1 deviation from orthogonality  is 3.00D-15 for   2834   1085.
 Iteration    1 A^-1*A deviation from unit magnitude is 3.33D-15 for   1633.
 Iteration    1 A^-1*A deviation from orthogonality  is 2.24D-15 for   2274    185.
 Error on total polarization charges =  0.02143
 SCF Done:  E(RwB97XD) =  -5421.44460091     A.U. after    6 cycles
            NFock=  6  Conv=0.22D-08     -V/T= 2.0041

 **********************************************************************

            Population analysis using the SCF density.

 **********************************************************************

 Alpha  occ. eigenvalues -- -482.95450-235.70868 -62.53491 -56.34054 -56.34042
 Alpha  occ. eigenvalues --  -56.34037 -27.47536 -23.53468 -23.53109 -23.53047
 Alpha  occ. eigenvalues --  -19.34579 -19.34549 -19.34480 -14.50816 -14.50808
 Alpha  occ. eigenvalues --  -14.46642 -10.42153 -10.42149 -10.42107 -10.37155
 Alpha  occ. eigenvalues --  -10.37146 -10.36611 -10.36597 -10.36290 -10.35591
 Alpha  occ. eigenvalues --  -10.34657 -10.34642 -10.34559 -10.34551 -10.33579
 Alpha  occ. eigenvalues --  -10.33563 -10.33446 -10.33342 -10.33330 -10.33280
 Alpha  occ. eigenvalues --  -10.33272 -10.33252 -10.32881 -10.32873 -10.32638
 Alpha  occ. eigenvalues --  -10.32390 -10.32330 -10.32322 -10.32278 -10.32115
 Alpha  occ. eigenvalues --  -10.32032 -10.32002 -10.31995 -10.31849 -10.31845
 Alpha  occ. eigenvalues --   -8.70244  -6.51946  -6.51911  -6.51893  -3.26993
 Alpha  occ. eigenvalues --   -2.62450  -2.62444  -2.62430  -2.62402  -2.62400
 Alpha  occ. eigenvalues --   -2.12858  -2.11933  -2.11838  -1.23595  -1.23522
 Alpha  occ. eigenvalues --   -1.23338  -1.08600  -1.08292  -1.02155  -1.00303
 Alpha  occ. eigenvalues --   -0.97878  -0.97631  -0.94480  -0.93281  -0.91392
 Alpha  occ. eigenvalues --   -0.90866  -0.89860  -0.88166  -0.87492  -0.86416
 Alpha  occ. eigenvalues --   -0.85280  -0.85010  -0.81928  -0.76800  -0.75890
 Alpha  occ. eigenvalues --   -0.75416  -0.75397  -0.74764  -0.74595  -0.74404
 Alpha  occ. eigenvalues --   -0.72311  -0.72000  -0.70290  -0.69012  -0.68211
 Alpha  occ. eigenvalues --   -0.65748  -0.65264  -0.65173  -0.64939  -0.64543
 Alpha  occ. eigenvalues --   -0.64525  -0.62674  -0.62128  -0.61074  -0.60185
 Alpha  occ. eigenvalues --   -0.59149  -0.58430  -0.57661  -0.57535  -0.57259
 Alpha  occ. eigenvalues --   -0.56934  -0.56634  -0.56504  -0.56108  -0.55969
 Alpha  occ. eigenvalues --   -0.55728  -0.55289  -0.54924  -0.54846  -0.54461
 Alpha  occ. eigenvalues --   -0.54383  -0.54049  -0.53365  -0.52994  -0.52542
 Alpha  occ. eigenvalues --   -0.52476  -0.52469  -0.51995  -0.51303  -0.51259
 Alpha  occ. eigenvalues --   -0.51136  -0.51127  -0.50557  -0.49464  -0.49101
 Alpha  occ. eigenvalues --   -0.48548  -0.47988  -0.47408  -0.47317  -0.46044
 Alpha  occ. eigenvalues --   -0.45766  -0.45145  -0.44922  -0.43753  -0.43718
 Alpha  occ. eigenvalues --   -0.43386  -0.42442  -0.41856  -0.41242  -0.40727
 Alpha  occ. eigenvalues --   -0.40365  -0.39660  -0.37837  -0.36581  -0.35653
 Alpha  occ. eigenvalues --   -0.35161  -0.33664  -0.33579  -0.33351  -0.33256
 Alpha  occ. eigenvalues --   -0.32218  -0.29676  -0.29549  -0.29260  -0.28006
 Alpha virt. eigenvalues --   -0.03076  -0.00631  -0.00228   0.00665   0.00885
 Alpha virt. eigenvalues --    0.01822   0.01972   0.02429   0.03948   0.04362
 Alpha virt. eigenvalues --    0.04411   0.06215   0.06763   0.06933   0.08994
 Alpha virt. eigenvalues --    0.09086   0.09320   0.09653   0.10278   0.10457
 Alpha virt. eigenvalues --    0.11514   0.12856   0.13150   0.13653   0.14140
 Alpha virt. eigenvalues --    0.14328   0.14515   0.15208   0.15299   0.15869
 Alpha virt. eigenvalues --    0.15969   0.16678   0.17421   0.17928   0.18748
 Alpha virt. eigenvalues --    0.18765   0.19435   0.19561   0.19965   0.20426
 Alpha virt. eigenvalues --    0.20692   0.21554   0.21948   0.22204   0.22549
 Alpha virt. eigenvalues --    0.22633   0.23076   0.23348   0.23566   0.24793
 Alpha virt. eigenvalues --    0.25805   0.26055   0.26284   0.27058   0.27633
 Alpha virt. eigenvalues --    0.28224   0.29140   0.29835   0.29958   0.30304
 Alpha virt. eigenvalues --    0.30590   0.31065   0.31321   0.31845   0.32138
 Alpha virt. eigenvalues --    0.32258   0.32387   0.32952   0.33573   0.33858
 Alpha virt. eigenvalues --    0.34153   0.34551   0.34959   0.35259   0.35505
 Alpha virt. eigenvalues --    0.35740   0.35879   0.36107   0.36534   0.36617
 Alpha virt. eigenvalues --    0.37667   0.37774   0.38516   0.38708   0.39173
 Alpha virt. eigenvalues --    0.39992   0.40344   0.41294   0.41500   0.42059
 Alpha virt. eigenvalues --    0.42086   0.42416   0.42830   0.44052   0.44123
 Alpha virt. eigenvalues --    0.44658   0.45434   0.45902   0.46660   0.47142
 Alpha virt. eigenvalues --    0.47615   0.47851   0.48131   0.48198   0.48660
 Alpha virt. eigenvalues --    0.49957   0.50343   0.50642   0.50978   0.51237
 Alpha virt. eigenvalues --    0.51387   0.51829   0.52338   0.52571   0.52721
 Alpha virt. eigenvalues --    0.52929   0.53258   0.53613   0.54217   0.54538
 Alpha virt. eigenvalues --    0.54715   0.54938   0.55107   0.55695   0.56045
 Alpha virt. eigenvalues --    0.56169   0.56612   0.57290   0.57442   0.57611
 Alpha virt. eigenvalues --    0.58117   0.58841   0.59166   0.60149   0.60188
 Alpha virt. eigenvalues --    0.60481   0.60537   0.61090   0.61536   0.61561
 Alpha virt. eigenvalues --    0.61655   0.63252   0.63679   0.64164   0.64797
 Alpha virt. eigenvalues --    0.64870   0.65512   0.65575   0.66391   0.66852
 Alpha virt. eigenvalues --    0.67113   0.67512   0.67782   0.67969   0.68594
 Alpha virt. eigenvalues --    0.68665   0.69960   0.70448   0.70463   0.70837
 Alpha virt. eigenvalues --    0.71289   0.71714   0.71841   0.71962   0.72437
 Alpha virt. eigenvalues --    0.72724   0.72906   0.73016   0.73390   0.73444
 Alpha virt. eigenvalues --    0.73851   0.74055   0.74407   0.74729   0.74774
 Alpha virt. eigenvalues --    0.75331   0.75492   0.75676   0.75864   0.76425
 Alpha virt. eigenvalues --    0.76803   0.77012   0.77094   0.77677   0.78345
 Alpha virt. eigenvalues --    0.78428   0.78798   0.79081   0.79464   0.79631
 Alpha virt. eigenvalues --    0.80318   0.80483   0.80641   0.81157   0.81562
 Alpha virt. eigenvalues --    0.81687   0.81748   0.82534   0.82827   0.83703
 Alpha virt. eigenvalues --    0.83883   0.83943   0.84179   0.84541   0.84952
 Alpha virt. eigenvalues --    0.85264   0.85470   0.85590   0.86366   0.86932
 Alpha virt. eigenvalues --    0.86981   0.87336   0.87585   0.87834   0.88091
 Alpha virt. eigenvalues --    0.88432   0.89182   0.89270   0.90109   0.90253
 Alpha virt. eigenvalues --    0.90398   0.91416   0.91567   0.91687   0.92314
 Alpha virt. eigenvalues --    0.93825   0.94114   0.94329   0.94615   0.95171
 Alpha virt. eigenvalues --    0.95551   0.95790   0.96400   0.96945   0.97916
 Alpha virt. eigenvalues --    0.98167   0.98771   0.99050   0.99928   1.01484
 Alpha virt. eigenvalues --    1.01650   1.02258   1.03322   1.04783   1.04870
 Alpha virt. eigenvalues --    1.06583   1.07488   1.08880   1.09256   1.09530
 Alpha virt. eigenvalues --    1.10998   1.11360   1.13139   1.13664   1.14650
 Alpha virt. eigenvalues --    1.14826   1.15072   1.15865   1.16047   1.16211
 Alpha virt. eigenvalues --    1.16940   1.17831   1.18102   1.20812   1.21678
 Alpha virt. eigenvalues --    1.22020   1.22398   1.22964   1.24406   1.24561
 Alpha virt. eigenvalues --    1.24945   1.25173   1.25643   1.26220   1.26293
 Alpha virt. eigenvalues --    1.27537   1.27952   1.28437   1.28486   1.29548
 Alpha virt. eigenvalues --    1.29717   1.30257   1.30695   1.30740   1.30906
 Alpha virt. eigenvalues --    1.31492   1.32315   1.33092   1.33687   1.33904
 Alpha virt. eigenvalues --    1.34207   1.34448   1.34788   1.35320   1.35557
 Alpha virt. eigenvalues --    1.35871   1.35894   1.36200   1.37547   1.37660
 Alpha virt. eigenvalues --    1.38224   1.38353   1.38528   1.40217   1.40708
 Alpha virt. eigenvalues --    1.41966   1.42184   1.43184   1.43370   1.44535
 Alpha virt. eigenvalues --    1.45456   1.46746   1.48077   1.48174   1.49403
 Alpha virt. eigenvalues --    1.50470   1.54890   1.55600   1.55680   1.58904
 Alpha virt. eigenvalues --    1.59143   1.59884   1.62371   1.63631   1.64308
 Alpha virt. eigenvalues --    1.64908   1.65579   1.66559   1.67562   1.67774
 Alpha virt. eigenvalues --    1.68765   1.69730   1.70941   1.71703   1.72026
 Alpha virt. eigenvalues --    1.72838   1.73013   1.73258   1.73684   1.73806
 Alpha virt. eigenvalues --    1.74428   1.74743   1.75047   1.75481   1.76003
 Alpha virt. eigenvalues --    1.77225   1.77266   1.78100   1.78469   1.78660
 Alpha virt. eigenvalues --    1.78734   1.79400   1.79548   1.79944   1.80021
 Alpha virt. eigenvalues --    1.80389   1.80907   1.81462   1.81627   1.81806
 Alpha virt. eigenvalues --    1.81933   1.82092   1.82234   1.82644   1.82947
 Alpha virt. eigenvalues --    1.83416   1.84105   1.84305   1.84701   1.84877
 Alpha virt. eigenvalues --    1.85666   1.86099   1.86402   1.87097   1.87406
 Alpha virt. eigenvalues --    1.87653   1.87872   1.88295   1.89699   1.89768
 Alpha virt. eigenvalues --    1.90380   1.90390   1.91078   1.91255   1.91853
 Alpha virt. eigenvalues --    1.93363   1.94162   1.94321   1.95549   1.96082
 Alpha virt. eigenvalues --    1.96776   1.97088   1.97575   1.98314   1.99282
 Alpha virt. eigenvalues --    1.99393   2.00592   2.01152   2.01431   2.02199
 Alpha virt. eigenvalues --    2.02567   2.02833   2.03216   2.03866   2.04510
 Alpha virt. eigenvalues --    2.04823   2.04995   2.05423   2.05737   2.06135
 Alpha virt. eigenvalues --    2.06933   2.07932   2.09214   2.10064   2.10351
 Alpha virt. eigenvalues --    2.10929   2.11070   2.11847   2.12284   2.13924
 Alpha virt. eigenvalues --    2.14629   2.15517   2.15827   2.16621   2.16714
 Alpha virt. eigenvalues --    2.16847   2.17880   2.18162   2.18592   2.19588
 Alpha virt. eigenvalues --    2.20334   2.20568   2.20888   2.21319   2.21566
 Alpha virt. eigenvalues --    2.23281   2.23575   2.24383   2.24517   2.25804
 Alpha virt. eigenvalues --    2.26114   2.29375   2.29967   2.30736   2.31366
 Alpha virt. eigenvalues --    2.31466   2.31666   2.32815   2.33451   2.34417
 Alpha virt. eigenvalues --    2.34998   2.35841   2.36062   2.36678   2.37392
 Alpha virt. eigenvalues --    2.37640   2.37773   2.38133   2.38455   2.38836
 Alpha virt. eigenvalues --    2.39566   2.39698   2.41342   2.41779   2.42684
 Alpha virt. eigenvalues --    2.44070   2.45205   2.45229   2.46164   2.46723
 Alpha virt. eigenvalues --    2.47509   2.48029   2.49901   2.49977   2.50721
 Alpha virt. eigenvalues --    2.53627   2.54881   2.56236   2.57333   2.59230
 Alpha virt. eigenvalues --    2.60221   2.60990   2.61535   2.63768   2.64676
 Alpha virt. eigenvalues --    2.65771   2.65964   2.66727   2.67003   2.67569
 Alpha virt. eigenvalues --    2.67639   2.68241   2.69480   2.69821   2.69877
 Alpha virt. eigenvalues --    2.70036   2.70324   2.70408   2.70880   2.71112
 Alpha virt. eigenvalues --    2.72106   2.72445   2.72721   2.74322   2.74770
 Alpha virt. eigenvalues --    2.75737   2.77000   2.79230   2.79454   2.80058
 Alpha virt. eigenvalues --    2.80124   2.80337   2.80466   2.81824   2.82261
 Alpha virt. eigenvalues --    2.84526   2.85249   2.85777   2.86412   2.87058
 Alpha virt. eigenvalues --    2.87178   2.89628   2.91418   2.91873   2.94574
 Alpha virt. eigenvalues --    2.95897   2.97864   2.98469   2.99080   3.01340
 Alpha virt. eigenvalues --    3.02742   3.05011   3.05838   3.06159   3.07096
 Alpha virt. eigenvalues --    3.08634   3.09703   3.10251   3.11774   3.12513
 Alpha virt. eigenvalues --    3.15831   3.16231   3.19168   3.19723   3.20318
 Alpha virt. eigenvalues --    3.20729   3.20963   3.21892   3.22245   3.24163
 Alpha virt. eigenvalues --    3.24722   3.29757   3.29915   3.32662   3.32888
 Alpha virt. eigenvalues --    3.38115   3.39038   3.41616   3.45670   3.45952
 Alpha virt. eigenvalues --    3.47220   3.50718   3.52353   3.55487   3.58476
 Alpha virt. eigenvalues --    3.60568   3.62393   3.63151   3.63233   3.63510
 Alpha virt. eigenvalues --    3.63827   3.65785   3.66480   3.71965   3.72713
 Alpha virt. eigenvalues --    3.75731   3.75935   3.76575   3.78847   3.79450
 Alpha virt. eigenvalues --    3.82130   3.85097   3.92417   3.95062   4.02492
 Alpha virt. eigenvalues --    4.08528
 Electronic spatial extent (au):  <R**2>=          25433.5964
 Charge=             -0.0000 electrons
 Dipole moment (field-independent basis, Debye):
    X=             19.7657    Y=             14.4254    Z=              0.2465  Tot=             24.4711
 Quadrupole moment (field-independent basis, Debye-Ang):
   XX=           -308.2001   YY=           -250.2935   ZZ=           -219.8937
   XY=            -55.8833   XZ=             -1.6754   YZ=             -1.4343
 Traceless Quadrupole moment (field-independent basis, Debye-Ang):
   XX=            -48.7376   YY=              9.1690   ZZ=             39.5687
   XY=            -55.8833   XZ=             -1.6754   YZ=             -1.4343
 Octapole moment (field-independent basis, Debye-Ang**2):
  XXX=            512.4541  YYY=            116.1056  ZZZ=              1.9771  XYY=           -130.6895
  XXY=            290.7019  XXZ=             12.2538  XZZ=             49.7718  YZZ=             10.7666
  YYZ=             -2.9586  XYZ=            -10.4955
 Hexadecapole moment (field-independent basis, Debye-Ang**3):
 XXXX=         -19177.7633 YYYY=          -7166.2270 ZZZZ=          -5533.8347 XXXY=          -1221.8770
 XXXZ=            -63.9479 YYYX=           -623.4097 YYYZ=             13.5591 ZZZX=             11.8999
 ZZZY=            -32.1626 XXYY=          -4544.7694 XXZZ=          -3815.2807 YYZZ=          -2544.3269
 XXYZ=             17.9150 YYXZ=            -30.3773 ZZXY=            133.4896
 N-N= 5.860122817204D+03 E-N=-2.454764742879D+04  KE= 5.399270145497D+03
 D1PCM: PCM CHGder 1st derivatives, ID1Alg=3 FixD1E=F DoIter=F DoCFld=F I1PDM=0.
 Calling FoFJK, ICntrl=      2127 FMM=T ISym2X=0 I1Cent= 0 IOpClX= 0 NMat=1 NMatS=1 NMatT=0.
 -------------------------------------------------------------------
 Center     Atomic                   Forces (Hartrees/Bohr)
 Number     Number              X              Y              Z
 -------------------------------------------------------------------
      1       25          -0.000069302   -0.000052151    0.000092852
      2        6           0.000022140   -0.000027600   -0.000009765
      3        8          -0.000005337    0.000010555    0.000001541
      4        6           0.000017277   -0.000074039   -0.000028966
      5        8           0.000006398   -0.000009970    0.000002962
      6        6           0.000002431   -0.000038229   -0.000036185
      7        7          -0.000124450    0.000016281   -0.000080119
      8        6          -0.000008632   -0.000051530    0.000035991
      9        6           0.000002041    0.000005072    0.000017299
     10        6           0.000031907   -0.000006680   -0.000010584
     11        1          -0.000015371    0.000020563   -0.000017829
     12        1           0.000000763    0.000002486   -0.000000673
     13        7           0.000207830    0.000076086   -0.000057021
     14        6          -0.000094153    0.000023424    0.000102280
     15        6          -0.000048509   -0.000009355   -0.000038560
     16        6          -0.000035929    0.000003285   -0.000015631
     17        6          -0.000006403   -0.000016365    0.000001505
     18        6          -0.000182879    0.000091240    0.000097577
     19        1           0.000004429   -0.000014531   -0.000004708
     20        1           0.000230899   -0.000085180   -0.000099883
     21        7          -0.000047035    0.000025152   -0.000002939
     22        6          -0.000000131   -0.000030734   -0.000011412
     23        6           0.000003019    0.000011002   -0.000004986
     24        1          -0.000045372   -0.000015130    0.000039900
     25        6          -0.000004496   -0.000014073   -0.000009150
     26        1          -0.000005302   -0.000008040   -0.000001811
     27        6           0.000029725    0.000015653    0.000004592
     28        1           0.000008100   -0.000003876   -0.000008616
     29        1          -0.000005976   -0.000000783    0.000001649
     30        8           0.000003375    0.000020306    0.000013485
     31        6           0.000046908    0.000001206    0.000230250
     32        6           0.000018427    0.000023149   -0.000044613
     33        6           0.000011567    0.000022553    0.000028420
     34        6           0.000026280    0.000013399   -0.000031120
     35        6          -0.000009312    0.000006902   -0.000005068
     36        6           0.000000294    0.000004873    0.000008573
     37        6           0.000011670    0.000005895   -0.000008355
     38        6          -0.000015467   -0.000000192    0.000033541
     39        6           0.000027734    0.000018932   -0.000046420
     40        1          -0.000000292    0.000002720    0.000002232
     41        1           0.000004165    0.000004836    0.000003792
     42        1           0.000003809    0.000005452   -0.000001534
     43        6          -0.000046215   -0.000003837    0.000020223
     44        6           0.000005934    0.000004501    0.000008280
     45        6          -0.000000390    0.000003401   -0.000005504
     46        6          -0.000005199    0.000005103    0.000000043
     47        6           0.000001446    0.000002298    0.000009410
     48        6           0.000006365    0.000009483   -0.000031374
     49        1          -0.000003978    0.000005561    0.000000644
     50        1           0.000000675    0.000006580    0.000000361
     51        1          -0.000004572    0.000003558   -0.000002628
     52        6          -0.000001836   -0.000008933   -0.000008554
     53        1           0.000001297    0.000002754   -0.000003424
     54        6           0.000004036   -0.000017543   -0.000000087
     55        1           0.000003268    0.000001874   -0.000005090
     56        1          -0.000002951    0.000002498    0.000003405
     57        6          -0.000004165   -0.000006189    0.000003667
     58        6           0.000001078    0.000011234    0.000000566
     59        1          -0.000003389   -0.000008614    0.000001625
     60        1          -0.000005119   -0.000007504   -0.000001923
     61       35           0.000002558    0.000024897    0.000010455
     62        1           0.000050916    0.000002774   -0.000022809
     63        1           0.000003398   -0.000006458   -0.000119781
 -------------------------------------------------------------------
 Cartesian Forces:  Max     0.000230899 RMS     0.000043407
 NDeriv=    189 NFrqRd=  0 NDerD0=      0 MskFDP=       0 MskDFD=       0 MskDF0=       0
 Re-enter D2Numr:  atom  63 IXYZ=3 step-up   number 1
 Basis read from rwf:  (5D, 7F)
   751 basis functions,  1339 primitive gaussians,   802 cartesian basis functions
   165 alpha electrons      165 beta electrons
       nuclear repulsion energy      5860.1860777077 Hartrees.
 NAtoms=   63 NActive=   63 NUniq=   63 SFac= 1.00D+00 NAtFMM=   60 NAOKFM=T Big=T
 Integral buffers will be    131072 words long.
 Raffenetti 2 integral format.
 Two-electron integral symmetry is turned off.
 Nuclear repulsion after empirical dispersion term =     5860.1230087706 Hartrees.
 ------------------------------------------------------------------------------
 Polarizable Continuum Model (PCM)
 =================================
 Model                : PCM.
 Atomic radii         : UFF (Universal Force Field).
 Polarization charges : Total charges.
 Charge compensation  : None.
 Solution method      : On-the-fly selection.
 Cavity type          : Scaled VdW (van der Waals Surface) (Alpha=1.100).
 Cavity algorithm     : GePol (No added spheres)
                        Default sphere list used, NSphG=   63.
                        Lebedev-Laikov grids with approx.  5.0 points / Ang**2.
                        Smoothing algorithm: York/Karplus (Gamma=1.0000).
                        Polarization charges: spherical gaussians, with
                                              point-specific exponents (IZeta= 3).
                        Self-potential: point-specific (ISelfS= 7).
                        Self-field    : sphere-specific E.n sum rule (ISelfD= 2).
 1st derivatives      : Analytical E(r).r(x)/FMM algorithm (CHGder, D1EAlg=3).
                        Cavity 1st derivative terms included.
 Solvent              : TetraHydroFuran, Eps=   7.425700 Eps(inf)=   1.974025
 ------------------------------------------------------------------------------
 One-electron integrals computed using PRISM.
 NBasis=   751 RedAO= T EigKep=  2.24D-04  NBF=   751
 NBsUse=   751 1.00D-06 EigRej= -1.00D+00 NBFU=   751
 Initial guess from the checkpoint file:  "checkpoint.chk"
 B after Tr=    -0.000000   -0.000000   -0.000006
         Rot=    1.000000    0.000000   -0.000000    0.000000 Ang=   0.00 deg.
 Requested convergence on RMS density matrix=1.00D-08 within 128 cycles.
 Requested convergence on MAX density matrix=1.00D-06.
 Requested convergence on             energy=1.00D-06.
 No special actions if energy rises.
 Inv3:  Mode=1 IEnd=    73864332.
 Iteration    1 A*A^-1 deviation from unit magnitude is 3.33D-15 for   3024.
 Iteration    1 A*A^-1 deviation from orthogonality  is 1.78D-15 for   3228    487.
 Iteration    1 A^-1*A deviation from unit magnitude is 3.33D-15 for   3024.
 Iteration    1 A^-1*A deviation from orthogonality  is 2.22D-15 for   2791   1036.
 Error on total polarization charges =  0.02143
 SCF Done:  E(RwB97XD) =  -5421.44460087     A.U. after    5 cycles
            NFock=  5  Conv=0.29D-08     -V/T= 2.0041

 **********************************************************************

            Population analysis using the SCF density.

 **********************************************************************

 Alpha  occ. eigenvalues -- -482.95450-235.70868 -62.53491 -56.34054 -56.34042
 Alpha  occ. eigenvalues --  -56.34037 -27.47536 -23.53468 -23.53109 -23.53047
 Alpha  occ. eigenvalues --  -19.34579 -19.34549 -19.34480 -14.50816 -14.50809
 Alpha  occ. eigenvalues --  -14.46642 -10.42153 -10.42149 -10.42107 -10.37155
 Alpha  occ. eigenvalues --  -10.37146 -10.36612 -10.36597 -10.36290 -10.35591
 Alpha  occ. eigenvalues --  -10.34658 -10.34641 -10.34560 -10.34550 -10.33579
 Alpha  occ. eigenvalues --  -10.33563 -10.33446 -10.33343 -10.33329 -10.33278
 Alpha  occ. eigenvalues --  -10.33274 -10.33252 -10.32880 -10.32874 -10.32638
 Alpha  occ. eigenvalues --  -10.32390 -10.32331 -10.32322 -10.32278 -10.32115
 Alpha  occ. eigenvalues --  -10.32032 -10.32002 -10.31996 -10.31849 -10.31845
 Alpha  occ. eigenvalues --   -8.70244  -6.51946  -6.51911  -6.51893  -3.26992
 Alpha  occ. eigenvalues --   -2.62450  -2.62444  -2.62430  -2.62402  -2.62400
 Alpha  occ. eigenvalues --   -2.12858  -2.11933  -2.11838  -1.23595  -1.23522
 Alpha  occ. eigenvalues --   -1.23338  -1.08601  -1.08292  -1.02155  -1.00303
 Alpha  occ. eigenvalues --   -0.97878  -0.97631  -0.94480  -0.93281  -0.91392
 Alpha  occ. eigenvalues --   -0.90866  -0.89860  -0.88166  -0.87492  -0.86416
 Alpha  occ. eigenvalues --   -0.85280  -0.85010  -0.81928  -0.76800  -0.75890
 Alpha  occ. eigenvalues --   -0.75417  -0.75397  -0.74764  -0.74595  -0.74404
 Alpha  occ. eigenvalues --   -0.72311  -0.72001  -0.70290  -0.69012  -0.68211
 Alpha  occ. eigenvalues --   -0.65748  -0.65265  -0.65173  -0.64939  -0.64543
 Alpha  occ. eigenvalues --   -0.64525  -0.62674  -0.62128  -0.61074  -0.60185
 Alpha  occ. eigenvalues --   -0.59149  -0.58430  -0.57661  -0.57535  -0.57259
 Alpha  occ. eigenvalues --   -0.56934  -0.56634  -0.56504  -0.56108  -0.55969
 Alpha  occ. eigenvalues --   -0.55729  -0.55289  -0.54924  -0.54846  -0.54461
 Alpha  occ. eigenvalues --   -0.54383  -0.54049  -0.53365  -0.52994  -0.52542
 Alpha  occ. eigenvalues --   -0.52477  -0.52468  -0.51995  -0.51303  -0.51259
 Alpha  occ. eigenvalues --   -0.51137  -0.51126  -0.50557  -0.49464  -0.49101
 Alpha  occ. eigenvalues --   -0.48548  -0.47988  -0.47408  -0.47317  -0.46044
 Alpha  occ. eigenvalues --   -0.45766  -0.45145  -0.44922  -0.43754  -0.43718
 Alpha  occ. eigenvalues --   -0.43386  -0.42442  -0.41857  -0.41242  -0.40727
 Alpha  occ. eigenvalues --   -0.40365  -0.39660  -0.37837  -0.36581  -0.35653
 Alpha  occ. eigenvalues --   -0.35161  -0.33664  -0.33579  -0.33351  -0.33256
 Alpha  occ. eigenvalues --   -0.32218  -0.29676  -0.29549  -0.29260  -0.28006
 Alpha virt. eigenvalues --   -0.03076  -0.00631  -0.00228   0.00665   0.00885
 Alpha virt. eigenvalues --    0.01822   0.01972   0.02429   0.03948   0.04362
 Alpha virt. eigenvalues --    0.04411   0.06215   0.06763   0.06933   0.08994
 Alpha virt. eigenvalues --    0.09086   0.09320   0.09653   0.10278   0.10457
 Alpha virt. eigenvalues --    0.11514   0.12856   0.13149   0.13653   0.14140
 Alpha virt. eigenvalues --    0.14328   0.14515   0.15208   0.15299   0.15869
 Alpha virt. eigenvalues --    0.15969   0.16678   0.17421   0.17928   0.18748
 Alpha virt. eigenvalues --    0.18765   0.19435   0.19561   0.19965   0.20426
 Alpha virt. eigenvalues --    0.20692   0.21554   0.21948   0.22204   0.22549
 Alpha virt. eigenvalues --    0.22633   0.23076   0.23348   0.23566   0.24793
 Alpha virt. eigenvalues --    0.25805   0.26055   0.26284   0.27058   0.27633
 Alpha virt. eigenvalues --    0.28224   0.29140   0.29835   0.29958   0.30304
 Alpha virt. eigenvalues --    0.30590   0.31065   0.31321   0.31845   0.32138
 Alpha virt. eigenvalues --    0.32258   0.32387   0.32952   0.33573   0.33858
 Alpha virt. eigenvalues --    0.34153   0.34551   0.34960   0.35259   0.35505
 Alpha virt. eigenvalues --    0.35740   0.35879   0.36107   0.36534   0.36617
 Alpha virt. eigenvalues --    0.37667   0.37773   0.38516   0.38708   0.39173
 Alpha virt. eigenvalues --    0.39992   0.40344   0.41294   0.41500   0.42062
 Alpha virt. eigenvalues --    0.42083   0.42416   0.42829   0.44053   0.44122
 Alpha virt. eigenvalues --    0.44658   0.45434   0.45902   0.46661   0.47142
 Alpha virt. eigenvalues --    0.47615   0.47851   0.48131   0.48198   0.48660
 Alpha virt. eigenvalues --    0.49957   0.50343   0.50642   0.50978   0.51237
 Alpha virt. eigenvalues --    0.51387   0.51829   0.52338   0.52571   0.52721
 Alpha virt. eigenvalues --    0.52929   0.53258   0.53613   0.54217   0.54538
 Alpha virt. eigenvalues --    0.54715   0.54938   0.55107   0.55695   0.56045
 Alpha virt. eigenvalues --    0.56169   0.56612   0.57290   0.57442   0.57611
 Alpha virt. eigenvalues --    0.58117   0.58841   0.59167   0.60149   0.60188
 Alpha virt. eigenvalues --    0.60481   0.60536   0.61090   0.61535   0.61562
 Alpha virt. eigenvalues --    0.61655   0.63252   0.63679   0.64164   0.64797
 Alpha virt. eigenvalues --    0.64870   0.65512   0.65575   0.66391   0.66852
 Alpha virt. eigenvalues --    0.67113   0.67513   0.67782   0.67969   0.68594
 Alpha virt. eigenvalues --    0.68665   0.69960   0.70448   0.70463   0.70837
 Alpha virt. eigenvalues --    0.71289   0.71714   0.71841   0.71962   0.72437
 Alpha virt. eigenvalues --    0.72724   0.72906   0.73016   0.73390   0.73444
 Alpha virt. eigenvalues --    0.73851   0.74055   0.74407   0.74728   0.74775
 Alpha virt. eigenvalues --    0.75330   0.75492   0.75676   0.75864   0.76425
 Alpha virt. eigenvalues --    0.76803   0.77012   0.77094   0.77677   0.78345
 Alpha virt. eigenvalues --    0.78428   0.78798   0.79081   0.79463   0.79631
 Alpha virt. eigenvalues --    0.80318   0.80483   0.80641   0.81157   0.81562
 Alpha virt. eigenvalues --    0.81687   0.81748   0.82535   0.82826   0.83703
 Alpha virt. eigenvalues --    0.83883   0.83944   0.84179   0.84541   0.84952
 Alpha virt. eigenvalues --    0.85264   0.85470   0.85590   0.86366   0.86932
 Alpha virt. eigenvalues --    0.86981   0.87336   0.87585   0.87834   0.88091
 Alpha virt. eigenvalues --    0.88432   0.89181   0.89271   0.90109   0.90253
 Alpha virt. eigenvalues --    0.90398   0.91416   0.91567   0.91687   0.92314
 Alpha virt. eigenvalues --    0.93825   0.94113   0.94330   0.94615   0.95171
 Alpha virt. eigenvalues --    0.95551   0.95790   0.96400   0.96945   0.97916
 Alpha virt. eigenvalues --    0.98167   0.98771   0.99050   0.99927   1.01484
 Alpha virt. eigenvalues --    1.01650   1.02258   1.03322   1.04783   1.04870
 Alpha virt. eigenvalues --    1.06583   1.07488   1.08880   1.09256   1.09530
 Alpha virt. eigenvalues --    1.10998   1.11360   1.13139   1.13665   1.14650
 Alpha virt. eigenvalues --    1.14825   1.15072   1.15867   1.16045   1.16211
 Alpha virt. eigenvalues --    1.16940   1.17831   1.18102   1.20812   1.21678
 Alpha virt. eigenvalues --    1.22020   1.22399   1.22964   1.24406   1.24561
 Alpha virt. eigenvalues --    1.24945   1.25173   1.25643   1.26220   1.26293
 Alpha virt. eigenvalues --    1.27537   1.27952   1.28437   1.28486   1.29548
 Alpha virt. eigenvalues --    1.29717   1.30257   1.30695   1.30740   1.30906
 Alpha virt. eigenvalues --    1.31492   1.32315   1.33091   1.33687   1.33903
 Alpha virt. eigenvalues --    1.34207   1.34448   1.34788   1.35320   1.35557
 Alpha virt. eigenvalues --    1.35871   1.35894   1.36200   1.37547   1.37661
 Alpha virt. eigenvalues --    1.38224   1.38353   1.38528   1.40217   1.40708
[...]
 ,0.00001309,-0.00006227,0.00000446,-0.00002992,-0.00008563,0.00001130,
 -0.00001078,0.00003880,-0.00000072,-0.00008313,0.00015321,0.00001317,-
 0.00016611,0.00021852,-0.00009158,-0.00011689,0.00001264,0.00000483,0.
 00006751,0.00000158,-0.00000058,0.00001668,0.00002128,-0.00003485,0.00
 045433,0.00000415,0.00002043,0.00001904,-0.00029539,0.00029763,0.00030
 234,0.00002666,-0.00006413,0.00016518,-0.00043507,-0.00043369,-0.00000
 031,-0.00003648,0.00000157,0.00035164,-0.00054421,-0.00002055,0.000009
 34,0.00000870,0.00000294,-0.00000083,0.00000363,0.00000083,-0.00000441
 ,0.00005578,0.00007543,-0.00000048,0.00001728,-0.00000431,-0.00000529,
 0.00000562,0.00000169,0.00000217,0.00000045,0.00000318,-0.00000249,0.0
 0000324,-0.00000200,-0.00000608,-0.00000171,-0.00000081,-0.00000817,-0
 .00000362,-0.00000285,0.00000059,-0.00000468,0.00000075,-0.00000168,-0
 .00000161,-0.00000079,-0.00000067,0.00000008,0.00000027,-0.00000640,-0
 .00000263,-0.00000185,-0.00000661,-0.00000148,0.00000007,-0.00000012,0
 .00000329,0.00000235,0.00000161,0.00000121,-0.00000223,-0.00000076,0.0
 0000641,0.00000150,-0.00000491,0.00001262,0.00000293,-0.00000059,0.000
 00002,-0.00000003,-0.00000059,-0.00000151,0.00000039,-0.00000002,-0.00
 000417,-0.00000090,-0.00000294,0.00004562,-0.00005893,-0.00000129,-0.0
 0000162,-0.00000705,-0.00009694,-0.00003680,0.00001156,-0.00003616,-0.
 00002033,0.00000860,-0.00004083,-0.00001176,-0.00001212,0.00004281,-0.
 00004391,-0.00000269,-0.00004716,-0.00011353,0.00000014,0.00001754,-0.
 00001205,-0.00000229,-0.00000014,-0.00002248,0.00000047,-0.00150239,0.
 00516534,-0.00009933,-0.00002805,0.00006658,-0.00165432,-0.00029440,-0
 .00221239,0.00251713,-0.00102296,-0.00090246,0.00153634,0.00052934,-0.
 00198201,-0.00253137,0.00096953,-0.00032302,-0.00002870,0.00013143,0.0
 0070068,-0.00022876,0.00019390,0.00015600,-0.00020159,-0.00002940,-0.0
 0001390,0.00006461,-0.00001476,-0.00002528,-0.00010859,-0.00004020,-0.
 00002525,0.00002274,0.00003142,0.00002982,-0.00001213,-0.00000389,-0.0
 0000275,0.00013123,0.00014913,-0.00252380,0.00051100,0.00000045,0.0001
 8238,0.00000773,0.00000111,-0.00007012,0.00000012,-0.00000310,0.000015
 64,-0.00000625,-0.00000143,-0.00000137,0.00002288,0.00000492,0.0000129
 0,-0.00000250,-0.00000063,-0.00000886,-0.00001905,0.00004270,-0.000081
 91,0.00019746,-0.00016615,0.00011609,0.00014042,0.00003301,-0.00001222
 ,-0.00004983,0.00000799,-0.00001556,-0.00001941,-0.00002836,0.00002417
 ,0.00034500,-0.00000757,-0.00000165,-0.00033412,0.00007677,-0.00024102
 ,-0.00025332,-0.00002413,0.00001705,-0.00005959,-0.00028302,0.00013284
 ,-0.00000055,-0.00000092,-0.00000525,0.00004224,-0.00007121,-0.0002144
 6,-0.00000048,-0.00000117,0.00003351,-0.00000002,0.00000001,0.00000351
 ,0.00000925,0.00005996,0.00006813,0.00001719,0.00001374,-0.00001296,-0
 .00000988,0.00000251,0.00000311,0.00000641,-0.00000134,0.00000919,-0.0
 0000766,0.00000050,-0.00000482,-0.00000596,-0.00000182,0.00000037,-0.0
 0000988,-0.00000149,-0.00002039,0.00000179,-0.00000070,0.00000827,0.00
 000007,-0.00000004,0.00000136,-0.00000218,0.00000041,0.00000114,0.0000
 0924,0.00000246,-0.00001967,0.00000511,0.00000191,0.00000058,0.0000072
 1,0.00000023,-0.00000478,-0.00000637,0.00000056,0.00000909,0.00000941,
 -0.00000202,0.00000285,-0.00001695,-0.00000976,-0.00001417,0.00000213,
 -0.00000052,0.00000105,-0.00000013,-0.00000011,0.00000148,-0.00000119,
 -0.00000055,0.00000945,-0.00001074,-0.00004944,0.00005145,0.00000828,0
 .00000412,-0.00000506,0.00007560,0.00003523,-0.00001503,0.00000910,0.0
 0000519,-0.00001435,-0.00001964,-0.00000801,-0.00001483,0.00000226,-0.
 00000042,-0.00000231,-0.00000375,-0.00000667,0.00002764,-0.00000167,0.
 00000209,-0.00001472,-0.00000115,-0.00000166,-0.00000582,0.00000589,-0
 .00019341,0.00712477,-0.00000081,-0.00003385,-0.00000084,0.00003920,0.
 00004931,0.00004904,-0.00002797,-0.00003329,-0.00004569,0.00003887,0.0
 0005408,-0.00004711,-0.00002779,-0.00003761,0.00004487,-0.00004040,0.0
 0005800,0.00000208,-0.00002823,-0.00000503,-0.00001667,-0.00001847,0.0
 0000959,-0.00000407,-0.00004575,-0.00004186,-0.00002395,0.00000512,0.0
 0001306,-0.00000534,-0.00001676,0.00000156,0.00000241,0.00000920,-0.00
 000139,0.00000611,-0.00001919,0.00001248,-0.00000063,0.00001064,-0.000
 01658,-0.00000027,0.00000135,0.00000058,-0.00000022,-0.00000051,-0.000
 00137,-0.00000008,-0.00000269,0.00000080,-0.00000006,0.00000377,0.0000
 0209,-0.00000024,-0.00000180,-0.00000213,0.00000093,-0.00000036,-0.000
 00092,0.00000032,-0.00002820,-0.00000666,0.00001662,-0.00001872,0.0000
 0868,0.00000391,-0.00004660,-0.00004289,0.00002080,-0.00001698,0.00000
 137,-0.00000267,-0.00001188,-0.00000548,0.00000270,-0.00000109,-0.0000
 0093,0.00000153,-0.00001168,-0.00000510,-0.00000435,-0.00000418,-0.000
 00128,-0.00000066,0.00000002,0.00000063,0.00000003,0.00004217,-0.00004
 156,-0.00000155,0.00060706,-0.00005266,0.00000378,-0.34329609,-0.01366
 033,-0.00129459,0.00005851,0.00000150,0.00021880,-0.00054755,0.0000488
 0,-0.00056319,0.00014052,0.00003963,0.00008510,-0.00003606,-0.00000997
 ,0.00019156,0.00106786,0.00034243,-0.00175433,-0.01041934,-0.00048837,
 -0.00319211,0.00063175,-0.00050157,0.00252979,0.00000885,-0.00001887,0
 .00003798,-0.00002293,-0.00002502,0.00003916,0.00026200,-0.00009070,0.
 00072028,0.00064867,-0.00031285,-0.00252916,-0.01025863,-0.00070544,0.
 00307663,0.00104526,0.00024732,0.00176174,-0.00004082,0.00001259,-0.00
 019244,0.00014244,0.00004408,-0.00008324,-0.00054282,0.00000889,0.0005
 6149,0.00033719,-0.00004803,-0.00068221,-0.00002267,-0.00000490,-0.000
 04042,0.00000891,-0.00001597,-0.00003806,0.00006105,0.00001817,-0.0002
 1560,0.00000930,-0.00000049,-0.00000730,0.00000581,0.00001214,0.000007
 07,-0.00000183,0.00002173,-0.00001736,-0.00000182,0.00002329,0.0000178
 9,0.00000003,0.00000137,-0.00000020,-0.00000023,0.00000080,0.00000035,
 -0.00000116,0.00000031,0.00000017,-0.00000077,0.00000106,-0.00000005,-
 0.00001284,0.00000078,-0.00000001,0.36050820,0.00002233,-0.00000751,0.
 00000031,-0.00000534,0.00000992,0.00000389,0.00000035,-0.00000432,-0.0
 0000370,-0.00000553,0.00001010,-0.00000385,0.00000050,-0.00000453,0.00
 000357,-0.00004362,0.00002353,0.00000086,-0.00002057,-0.00000040,0.000
 00667,-0.00000962,0.00000115,0.00003254,-0.00006298,0.00000175,-0.0000
 2395,0.00009081,-0.00007074,-0.00004799,-0.00000283,-0.00000712,0.0000
 0281,-0.00000022,0.00000515,-0.00001140,0.00000202,-0.00000386,-0.0000
 0046,-0.00000102,0.00000446,0.00000023,0.00000023,-0.00000131,-0.00000
 001,0.00000169,-0.00000195,-0.00000024,-0.00000107,0.00000099,-0.00000
 011,-0.00000055,-0.00000076,0.00000002,0.00000045,0.00000086,0.0000001
 9,0.00000029,0.00000079,0.00000003,-0.00001554,-0.00000043,-0.00000675
 ,-0.00000998,-0.00000047,-0.00003268,-0.00005471,0.00000189,0.00002116
 ,-0.00000201,-0.00000670,-0.00000322,0.00001905,0.00001103,-0.00000953
 ,0.00000067,0.00000030,-0.00000040,0.00001832,0.00001312,0.00000934,0.
 00000055,0.00000034,0.00000024,0.00000075,-0.00000042,0.00000010,0.000
 03145,-0.00001998,-0.00000084,0.00005924,-0.00075993,0.00002186,-0.013
 80334,-0.03837495,0.00074562,-0.00000600,0.00034851,0.00006962,-0.0001
 4499,-0.00003436,0.00010170,-0.00018312,-0.00023163,-0.00012286,0.0002
 9440,0.00006794,-0.00011110,0.00020913,-0.00408684,-0.00006033,-0.0025
 7158,0.00453982,-0.00006319,0.00059672,0.00602710,0.00108519,0.0000026
 8,0.00003312,0.00000541,-0.00000848,0.00025437,0.00001876,0.00006842,0
 .00003011,0.00025294,0.00072545,0.00609859,-0.00032142,-0.00061606,0.0
 0459548,0.00005681,0.00037009,-0.00407511,-0.00032406,0.00024401,0.000
 05987,0.00010832,-0.00016141,-0.00023860,0.00008729,-0.00004396,-0.000
 02182,-0.00011446,-0.00001804,0.00022173,0.00005118,-0.00001065,0.0002
 5611,-0.00000299,-0.00000278,0.00003307,-0.00000208,-0.00000787,0.0003
 5428,-0.00001905,-0.00000065,0.00000520,0.00001206,0.00008719,-0.00007
 962,0.00004289,-0.00001898,-0.00001772,-0.00002824,-0.00001854,-0.0000
 2162,0.00002766,0.00000009,-0.00000066,-0.00000008,0.00000026,-0.00000
 205,0.00000002,0.00000005,0.00000025,0.00000006,0.00000030,0.00000028,
 0.00000004,0.00000128,-0.00000025,-0.00000001,0.01508432,0.02597797,0.
 00000004,-0.00000094,-0.00001447,-0.00000763,-0.00000232,-0.00000061,0
 .00000410,0.00000351,0.00000260,0.00000930,0.00000792,-0.00000571,-0.0
 0000725,-0.00000891,0.00000869,-0.00000161,0.00000104,-0.00001095,0.00
 005053,0.00000154,0.00000962,0.00000766,-0.00003114,0.00000192,0.00009
 454,0.00003142,0.00002807,-0.00001522,-0.00002867,0.00000129,0.0000111
 7,0.00000151,-0.00000046,-0.00000575,0.00000697,-0.00000604,0.00000023
 ,-0.00000005,0.00001206,0.00000056,-0.00000138,-0.00000050,-0.00000016
 ,0.00000028,-0.00000127,0.00000015,0.00000047,-0.00000035,-0.00000002,
 -0.00000004,0.00000007,-0.00000032,0.00000014,0.00000036,0.00000005,-0
 .00000006,-0.00000082,-0.00000013,-0.00000009,0.00000008,-0.00005382,-
 0.00000396,0.00001043,-0.00000632,0.00003242,0.00000018,-0.00009871,-0
 .00003315,0.00002625,-0.00001078,-0.00000253,-0.00000051,0.00000700,0.
 00001382,0.00000388,0.00000109,0.00000121,-0.00000100,-0.00000713,-0.0
 0001123,0.00000128,-0.00000079,-0.00000121,-0.00000051,-0.00000010,-0.
 00000009,-0.00000018,0.00000224,-0.00000108,0.00000190,0.00001035,0.00
 000807,-0.00097023,-0.00133965,0.00069256,-0.05815622,0.00000443,0.000
 03038,-0.00035150,0.00128278,0.00002223,0.00028714,0.00022421,-0.00000
 312,0.00016809,-0.00042611,-0.00001071,0.00019538,0.00169118,-0.000254
 64,0.00098851,0.02647488,0.00104784,0.00405134,0.00134268,0.00069632,-
 0.00426772,-0.00004606,0.00000012,-0.00002565,-0.00002113,0.00000836,0
 .00001678,-0.00074863,0.00020132,-0.00061643,-0.00126444,0.00007626,-0
 .00435926,-0.02663374,-0.00100866,0.00385806,-0.00171012,-0.00011163,0
 .00101052,0.00045895,0.00000039,0.00020254,-0.00023902,-0.00002826,0.0
 0017884,-0.00128788,-0.00005017,0.00027217,0.00080072,0.00010337,-0.00
 100084,0.00002020,0.00000746,0.00001777,0.00004957,0.00000450,-0.00002
 400,-0.00000933,0.00002023,-0.00035526,0.00000479,-0.00000631,-0.00000
 547,0.00002993,0.00002706,0.00000494,0.00000469,-0.00000620,-0.0000136
 6,-0.00000684,0.00000333,-0.00001070,0.00000006,-0.00000018,0.00000013
 ,0.00000005,0.00000010,0.00000045,0.00000015,-0.00000003,0.00000022,0.
 00000004,-0.00000012,-0.00000006,0.00000143,0.00000039,0.00000053,0.00
 136017,-0.00141708,0.05875303,-0.00009070,-0.00013267,-0.00000832,0.00
 002719,0.00004224,0.00002928,-0.00001953,-0.00002918,-0.00003064,0.000
 02682,0.00004626,-0.00002908,-0.00001999,-0.00003345,0.00003123,-0.000
 00530,0.00004844,-0.00000019,0.00066907,-0.00055371,-0.00008089,-0.000
 81435,-0.00037177,-0.00038539,0.00117454,-0.00043155,-0.00042684,-0.00
 171483,-0.00293931,0.00208529,-0.00002487,-0.00003021,0.00003243,0.000
 01140,0.00004584,-0.00003588,0.00008380,-0.00001522,0.00000357,0.00000
 552,0.00001990,0.00000122,-0.00000812,0.00000127,-0.00000103,0.0000023
 0,-0.00000070,-0.00000237,0.00000126,0.00000369,0.00000027,-0.00000683
 ,-0.00000074,0.00000339,0.00000663,0.00000214,0.00000107,-0.00000381,-
 0.00000233,0.00000070,0.00070226,-0.00055497,0.00004998,-0.00085012,-0
 .00042076,0.00035947,0.00121368,-0.00046681,0.00043039,-0.00002566,-0.
 00002882,-0.00003553,-0.00030827,0.00085535,0.00066597,0.00000532,0.00
 002991,-0.00002278,-0.00031641,0.00092105,-0.00063744,-0.00000073,0.00
 003199,0.00002829,-0.00000109,-0.00000366,0.00000101,0.00000676,-0.000
 02899,0.00000024,-0.35182242,0.03010170,-0.00004212,0.00064492,-0.0000
 8670,0.,-0.00008780,0.00002672,0.00333612,-0.00092443,-0.00067474,0.00
 135646,-0.00016439,0.00001685,-0.00004824,0.00009756,0.00005702,-0.000
 12479,-0.00054900,-0.00005852,0.00048165,0.00084451,0.00099364,-0.0023
 3603,-0.01066055,0.00066452,0.00103952,0.00001261,-0.00002513,-0.00004
 066,0.00001292,0.00000363,-0.00002463,-0.00004697,-0.00003961,-0.00016
 327,-0.01082489,0.00072441,-0.00109377,0.00083092,0.00082916,0.0024199
 3,-0.00054989,-0.00000894,-0.00048600,0.00009352,0.00006876,0.00012758
 ,-0.00016044,0.00000414,0.00004620,-0.00093910,-0.00059405,-0.00140342
 ,-0.00004795,-0.00005447,0.00016052,0.00001346,0.00000375,0.00002489,0
 .00001282,-0.00002402,0.00003743,-0.00012016,0.00022223,-0.00367331,0.
 00001074,0.00004453,0.00003654,-0.00189424,-0.00305613,-0.00242329,-0.
 00030191,-0.00011183,-0.00058815,-0.00023974,-0.00011966,0.00057331,0.
 00000093,-0.00000331,-0.00000194,-0.00000204,-0.00000081,0.00000049,0.
 00000229,-0.00000265,-0.00000035,0.00000109,-0.00000047,-0.00000080,-0
 .00000069,0.00000275,0.00000011,-0.00010491,-0.00007744,-0.00000072,0.
 37705378,-0.00001170,0.00014394,0.00000212,-0.00013271,-0.00016743,-0.
 00019386,0.00008328,0.00009879,0.00013289,-0.00012747,-0.00017741,0.00
 017721,0.00007822,0.00010450,-0.00012295,0.00009219,-0.00012081,-0.000
 00663,-0.00056440,0.00000498,0.00005263,0.00038772,0.00012641,0.000093
 28,-0.00035369,0.00003217,-0.00004744,-0.00095987,-0.00084539,0.002043
 19,0.00001069,-0.00001787,0.00000100,0.00002258,-0.00005195,0.00000080
 ,0.00001822,-0.00003307,0.00000330,-0.00001088,0.00003426,0.00000223,0
 .00000576,-0.00000009,-0.00000107,0.00003310,-0.00001041,-0.00000584,-
 0.00001279,-0.00000302,0.00000044,-0.00000021,-0.00000607,0.00000008,-
 0.00000368,-0.00000572,0.00000424,-0.00000243,0.00000270,0.00000011,-0
 .00053728,0.00000750,-0.00005310,0.00036530,0.00012954,-0.00006586,-0.
 00033189,0.00001391,0.00003584,0.00001072,-0.00001699,-0.00000135,0.00
 005582,-0.00027311,-0.00033671,0.00001494,-0.00000538,-0.00002775,0.00
 005177,-0.00028132,0.00030417,0.00001756,-0.00000594,0.00002354,0.0000
 0269,-0.00000324,0.00000027,-0.00008643,0.00007641,0.00000244,0.029763
 75,-0.03872090,0.00062347,-0.00065343,-0.00097187,-0.00002499,0.000143
 15,-0.00049717,0.00118047,-0.00034805,-0.00358883,0.00018569,-0.000366
 44,-0.00000244,-0.00047071,0.00029767,-0.00036640,-0.00009448,0.000268
 92,0.00001822,-0.00001073,-0.00024987,0.00606544,0.00110978,0.00084882
 ,0.00428370,-0.00211736,-0.00003781,0.00036504,0.00002292,-0.00001852,
 0.00004883,-0.00000489,0.00000861,0.00025076,0.00007298,-0.00119196,0.
 00418101,0.00209719,-0.00031822,0.00614731,-0.00031002,0.00017203,0.00
 000421,-0.00002462,0.00030321,-0.00037073,0.00006460,-0.00037892,-0.00
 004117,0.00046144,-0.00034961,-0.00357058,-0.00047048,-0.00000563,0.00
 025491,-0.00003066,-0.00001645,0.00004918,0.00001092,-0.00003884,0.000
 36678,0.00000008,0.00011128,-0.00022194,-0.00097945,0.00002255,-0.0000
 5188,-0.00000574,-0.00095310,-0.00053465,-0.00213020,-0.00027555,-0.00
 115495,-0.00085551,-0.00020906,-0.00118709,0.00073472,0.00000508,0.000
 00067,-0.00000041,-0.00000531,-0.00000882,0.00000053,-0.00000190,-0.00
 000019,0.00000023,-0.00000225,0.00000170,0.00000040,0.00004868,-0.0000
 1385,-0.00000002,0.00006503,-0.00087463,-0.00003514,-0.02474985,0.0314
 0660,-0.00000904,-0.00001028,0.00013994,0.00002014,0.00004375,0.000070
 65,-0.00003585,-0.00004969,-0.00005754,-0.00001610,-0.00004395,0.00006
 600,0.00002731,0.00004417,-0.00004259,-0.00000175,0.00000147,0.0000217
 4,0.00006608,0.00009060,-0.00015243,-0.00013305,-0.00005200,-0.0001307
 8,0.00026870,-0.00018553,0.00001891,0.00219070,0.00239586,-0.00174337,
 -0.00001809,0.00001760,-0.00000941,-0.00002272,0.00000803,0.00005594,0
 .00000701,0.00000751,-0.00011918,-0.00000173,0.00000334,0.00000674,-0.
 00000176,-0.00000165,0.00001132,-0.00000443,-0.00000026,-0.00000266,0.
 00000230,-0.00000034,-0.00000481,-0.00000101,-0.00000088,-0.00000210,0
 .00000039,0.00000319,0.00001021,0.00000065,-0.00000006,0.00000310,-0.0
 0006258,-0.00009290,-0.00016116,0.00012704,0.00005246,-0.00011417,-0.0
 0023978,0.00014700,0.00003038,0.00001859,-0.00001724,-0.00000865,-0.00
 003532,0.00005331,0.00016255,-0.00000690,-0.00001476,0.00003319,0.0000
 0823,-0.00005739,0.00014959,0.00001346,0.00001713,0.00003302,-0.000000
 27,-0.00000007,0.00000207,0.00000523,-0.00000826,0.00000178,0.00000721
 ,0.00065571,-0.05863805,-0.00002309,0.00000169,-0.00102465,0.00042505,
 0.00083598,-0.00306547,-0.00003373,-0.00008588,0.00046059,0.00008369,-
 0.00007128,0.00017752,-0.00007782,-0.00001839,0.00011888,-0.00134706,-
 0.00021797,0.00037209,-0.00134493,0.00076011,-0.00450416,-0.02680669,0
 .00111995,0.00498596,0.00001035,0.00002844,0.00003418,0.00003803,0.000
 02380,-0.00003075,-0.00019571,0.00003306,-0.00034101,0.02665355,-0.001
 17129,0.00506235,0.00133994,0.00003249,-0.00453925,0.00135080,0.000188
 24,0.00038871,0.00010053,-0.00001656,0.00011933,-0.00010360,0.00005255
 ,0.00023491,0.00003418,-0.00020505,0.00027739,0.00019463,0.00000903,-0
 .00034051,-0.00003846,-0.00002065,-0.00002987,-0.00001255,-0.00000387,
 0.00003107,-0.00063547,-0.00061174,-0.00384508,0.00002342,-0.00001268,
 0.00005955,-0.00258310,-0.00253965,-0.00232797,-0.00020656,-0.00047080
 ,-0.00037511,0.00019785,0.00039953,-0.00023162,-0.00000028,-0.00000099
 ,0.00000040,0.00000092,0.00000036,-0.00000109,0.00000058,-0.00000029,0
 .00000115,0.00000050,-0.00000032,0.00000102,0.00000182,-0.00000070,-0.
 00001436,0.00000096,-0.00003320,0.00007014,0.00077930,-0.00101447,0.06
 863125\\0.00006927,0.00005213,-0.00009310,-0.00002218,0.00002755,0.000
 00967,0.00000541,-0.00001047,-0.00000146,-0.00001728,0.00007409,0.0000
 2884,-0.00000642,0.00000992,-0.00000290,-0.00000254,0.00003839,0.00003
 612,0.00012437,-0.00001640,0.00008042,0.00000885,0.00005162,-0.0000357
 4,-0.00000255,-0.00000472,-0.00001734,-0.00003611,0.00000214,0.0000138
 5,0.00001541,-0.00002059,0.00001785,-0.00000071,-0.00000248,0.00000059
 ,-0.00020786,-0.00007607,0.00005725,0.00009417,-0.00002345,-0.00010229
 ,0.00004851,0.00000936,0.00003854,0.00003593,-0.00000329,0.00001564,0.
 00000640,0.00001636,-0.00000150,0.00018290,-0.00009124,-0.00009757,-0.
 00000443,0.00001453,0.00000469,-0.00023090,0.00008518,0.00009988,0.000
 04715,-0.00002494,0.00000325,-0.00000010,0.00003064,0.00001161,-0.0000
 0259,-0.00001126,0.00000491,0.00004534,0.00001516,-0.00003989,0.000004
 60,0.00001392,0.00000878,0.00000533,0.00000808,0.00000175,-0.00002973,
 -0.00001560,-0.00000482,-0.00000812,0.00000385,0.00000855,0.00000598,0
 .00000078,-0.00000165,-0.00000326,-0.00002044,-0.00001349,-0.00004713,
 -0.00000239,-0.00011946,-0.00001837,-0.00002315,0.00004658,-0.00001230
 ,-0.00002414,-0.00002274,-0.00002627,-0.00001323,0.00003019,0.00000920
 ,-0.00000677,0.00000474,-0.00000014,-0.00000484,-0.00000881,-0.0000091
 2,-0.00000549,0.00000760,0.00001802,-0.00000124,-0.00002499,0.00002301
 ,-0.00002105,0.00003698,0.00000026,-0.00000277,-0.00000227,-0.00000424
 ,-0.00000488,-0.00000372,-0.00000347,-0.00000552,0.00000218,-0.0000041
 5,0.00000605,-0.00002976,-0.00000843,-0.00000456,0.00000032,-0.0000021
 6,-0.00000376,0.00000474,0.00000502,-0.00000507,-0.00000027,-0.0000012
 4,-0.00000240,-0.00000985,-0.00000643,-0.00000910,0.00003084,0.0000036
 1,-0.00000558,0.,-0.00000060,-0.00000654,-0.00000031,0.00000459,-0.000
 00355,0.00000256,0.00000310,0.00001010,0.00001591,-0.00000134,-0.00000
 273,0.00000331,0.00000080,0.00002232,0.00000450,-0.00000287,-0.0000009
 9,0.00000580,0.00000257,-0.00000325,-0.00000295,0.00000417,0.00000618,
 -0.00000367,-0.00000108,-0.00001123,-0.00000056,0.00000339,0.00000861,
 -0.00000163,0.00000512,0.00000750,0.00000192,-0.00000256,-0.00002489,-
 0.00001043,-0.00005094,-0.00000271,0.00002267,-0.00000487,0.00000829,-
 0.00000986\\\@


 IF YOU BELIEVE CERTAIN WORDS, YOU BELIEVE THEIR HIDDEN ARGUMENTS.
 WHEN YOU BELIEVE SOMETHING IS RIGHT OR WRONG, TRUE OR FALSE, 
 YOU BELIEVE THE ASSUMPTIONS IN THE WORDS WHICH EXPRESS THE ARGUMENTS.
 SUCH ASSUMPTIONS ARE OFTEN FULL OF HOLES, BUT REMAIN MOST PRECIOUS 
 TO THE CONVINCED.

                 -- THE OPEN-ENDED PROOF FROM THE PANOPLIA PROPHETICA
                    CHILDREN OF DUNE BY FRANK HERBERT
 Job cpu time:       0 days 18 hours 34 minutes  3.9 seconds.
 Elapsed time:       0 days  1 hours 34 minutes 53.4 seconds.
 File lengths (MBytes):  RWF=    979 Int=      0 D2E=      0 Chk=    115 Scr=      1
 Normal termination of Gaussian 16 at Thu Mar  9 08:23:23 2023.
