 Entering Gaussian System, Link 0=g16
 Initial command:
 /home1/apps/gaussian/16rA.03/g16/l1.exe "/tmp/Gau-202348.inp" -scrdir="/tmp/"
 Entering Link 1 = /home1/apps/gaussian/16rA.03/g16/l1.exe PID=    202349.
  
 Copyright (c) 1988,1990,1992,1993,1995,1998,2003,2009,2016,
            Gaussian, Inc.  All Rights Reserved.
  
 This is part of the Gaussian(R) 16 program.  It is based on
 the Gaussian(R) 09 system (copyright 2009, Gaussian, Inc.),
 the Gaussian(R) 03 system (copyright 2003, Gaussian, Inc.),
 the Gaussian(R) 98 system (copyright 1998, Gaussian, Inc.),
 the Gaussian(R) 94 system (copyright 1995, Gaussian, Inc.),
 the Gaussian 92(TM) system (copyright 1992, Gaussian, Inc.),
 the Gaussian 90(TM) system (copyright 1990, Gaussian, Inc.),
 the Gaussian 88(TM) system (copyright 1988, Gaussian, Inc.),
 the Gaussian 86(TM) system (copyright 1986, Carnegie Mellon
 University), and the Gaussian 82(TM) system (copyright 1983,
 Carnegie Mellon University). Gaussian is a federally registered
 trademark of Gaussian, Inc.
  
 This software contains proprietary and confidential information,
 including trade secrets, belonging to Gaussian, Inc.
  
 This software is provided under written license and may be
 used, copied, transmitted, or stored only in accord with that
 written license.
  
 The following legend is applicable only to US Government
 contracts under FAR:
  
                    RESTRICTED RIGHTS LEGEND
  
 Use, reproduction and disclosure by the US Government is
 subject to restrictions as set forth in subparagraphs (a)
 and (c) of the Commercial Computer Software - Restricted
 Rights clause in FAR 52.227-19.
  
 Gaussian, Inc.
 340 Quinnipiac St., Bldg. 40, Wallingford CT 06492
  
  
 ---------------------------------------------------------------
 Warning -- This program may not be used in any manner that
 competes with the business of Gaussian, Inc. or will provide
 assistance to any competitor of Gaussian, Inc.  The licensee
 of this program is prohibited from giving any competitor of
 Gaussian, Inc. access to this program.  By using this program,
 the user acknowledges that Gaussian, Inc. is engaged in the
 business of creating and licensing software in the field of
 computational chemistry and represents and warrants to the
 licensee that it is not a competitor of Gaussian, Inc. and that
 it will not use this program in any manner prohibited above.
 ---------------------------------------------------------------
  

 Cite this work as:
 Gaussian 16, Revision A.03,
 M. J. Frisch, G. W. Trucks, H. B. Schlegel, G. E. Scuseria, 
 M. A. Robb, J. R. Cheeseman, G. Scalmani, V. Barone, 
 G. A. Petersson, H. Nakatsuji, X. Li, M. Caricato, A. V. Marenich, 
 J. Bloino, B. G. Janesko, R. Gomperts, B. Mennucci, H. P. Hratchian, 
 J. V. Ortiz, A. F. Izmaylov, J. L. Sonnenberg, D. Williams-Young, 
 F. Ding, F. Lipparini, F. Egidi, J. Goings, B. Peng, A. Petrone, 
 T. Henderson, D. Ranasinghe, V. G. Zakrzewski, J. Gao, N. Rega, 
 G. Zheng, W. Liang, M. Hada, M. Ehara, K. Toyota, R. Fukuda, 
 J. Hasegawa, M. Ishida, T. Nakajima, Y. Honda, O. Kitao, H. Nakai, 
 T. Vreven, K. Throssell, J. A. Montgomery, Jr., J. E. Peralta, 
 F. Ogliaro, M. J. Bearpark, J. J. Heyd, E. N. Brothers, K. N. Kudin, 
 V. N. Staroverov, T. A. Keith, R. Kobayashi, J. Normand, 
 K. Raghavachari, A. P. Rendell, J. C. Burant, S. S. Iyengar, 
 J. Tomasi, M. Cossi, J. M. Millam, M. Klene, C. Adamo, R. Cammi, 
 J. W. Ochterski, R. L. Martin, K. Morokuma, O. Farkas, 
 J. B. Foresman, and D. J. Fox, Gaussian, Inc., Wallingford CT, 2016.
 
 ******************************************
 Gaussian 16:  ES64L-G16RevA.03 25-Dec-2016
                21-Mar-2023 
 ******************************************
 %NProcShared=12
 Will use up to   12 processors via shared memory.
 %Chk=checkpoint.chk
 %Mem=1200MW
 -------------------------------------------
 # wB97XD Gen SCRF=(Solvent=TetraHydroFuran)
 -------------------------------------------
 1/38=1,172=1/1;
 2/12=2,17=6,18=5,40=1/2;
 3/5=7,11=2,25=1,30=1,70=2201,72=20,74=-58/1,2,3;
 4//1;
 5/5=2,38=5,53=20/2;
 6/7=2,8=2,9=2,10=2,28=1/1;
 99/5=1,9=1/99;
 ---------------------
 Anth Prod Calculation
 ---------------------
 Symbolic Z-matrix:
 Charge =  0 Multiplicity = 1
 Mn                   -1.22873  -0.51376   1.82181 
 C                    -1.87759  -1.93431   2.77371 
 O                    -2.27815  -2.82438   3.36724 
 C                    -2.27341   0.67254   2.75663 
 O                    -2.90669   1.40841   3.35475 
 C                     0.09709  -0.29428   3.05038 
 N                    -0.50983   1.1109    0.61148 
 C                    -0.93937   2.87293  -0.95517 
 C                     0.42123   3.13751  -1.07546 
 C                     0.79093   1.40647   0.526 
 H                    -1.6832    3.44523  -1.51005 
 H                     0.78468   3.91836  -1.74692 
 N                    -2.68011  -0.75005   0.43807 
 C                    -3.51757  -0.89079  -0.34321 
 C                    -4.5143   -1.11413  -1.34481 
 C                    -4.14851  -1.03609  -2.69674 
 C                    -5.11214  -1.26288  -3.67314 
 C                    -5.83077  -1.41572  -0.96765 
 H                    -3.12059  -0.7951   -2.97178 
 H                    -6.10049  -1.46143   0.08793 
 N                    -0.04477  -1.87635   0.63579 
 C                     0.0939   -3.68877  -0.92981 
 C                     1.47634  -3.54625  -1.01561 
 H                    -0.43284  -4.45033  -1.50502 
 C                    -1.36482   1.85333  -0.11419 
 H                    -2.43433   1.65187  -0.0123 
 C                    -0.6254   -2.83423  -0.10728 
 H                    -1.7086   -2.92369  -0.03664 
 H                    -4.83927  -1.20037  -4.72774 
 O                     0.91165  -0.15653   3.84261 
 S                     3.03465   0.09353  -1.51071 
 S                     6.1853    0.5901   -1.38361 
 C                     1.31793   2.38465  -0.31688 
 C                     2.79057   2.60199  -0.35714 
 C                     3.31898   3.8282    0.06073 
 C                     4.69454   4.04337   0.08247 
 C                     5.56653   3.03217  -0.30999 
 C                     5.05601   1.81698  -0.77236 
 C                     3.67177   1.59852  -0.80359 
 H                     2.6368    4.61269   0.39483 
 H                     5.09174   5.00015   0.4256 
 H                     6.64682   3.1847   -0.26981 
 C                     4.09838  -1.11588  -0.75273 
 C                     5.48251  -0.89797  -0.71723 
 C                     6.33596  -1.87988  -0.20832 
 C                     5.81268  -3.09415   0.22618 
 C                     4.43775  -3.31387   0.19722 
 C                     3.5647   -2.32513  -0.26786 
 H                     7.41054  -1.69212  -0.16492 
 H                     6.48114  -3.86849   0.60621 
 H                     4.02585  -4.25749   0.56101 
 C                     2.09511  -2.56383  -0.24463 
 H                     2.06687  -4.18566  -1.67497 
 C                     1.28662  -1.78194   0.58182 
 H                     1.76511  -1.05155   1.23188 
 H                     1.47486   0.85241   1.1666 
 C                    -6.4238   -1.56478  -3.30342 
 C                    -6.78157  -1.64169  -1.95614 
 H                    -7.80991  -1.87259  -1.67397 
 H                    -7.1771   -1.73908  -4.07424 
 Br                   -5.05864   2.44612  -0.05105 
 
 Stoichiometry    C32H19BrMnN3O3S2
 Framework group  C1[X(C32H19BrMnN3O3S2)]
 Deg. of freedom   177
 Full point group                 C1      NOp   1
 Largest Abelian subgroup         C1      NOp   1
 Largest concise Abelian subgroup C1      NOp   1
                         Standard orientation:                         
 ---------------------------------------------------------------------
 Center     Atomic      Atomic             Coordinates (Angstroms)
 Number     Number       Type             X           Y           Z
 ---------------------------------------------------------------------
      1         25           0       -1.228730   -0.513759    1.821810
      2          6           0       -1.877590   -1.934309    2.773710
      3          8           0       -2.278150   -2.824379    3.367240
      4          6           0       -2.273409    0.672541    2.756630
      5          8           0       -2.906689    1.408411    3.354750
      6          6           0        0.097090   -0.294280    3.050380
      7          7           0       -0.509829    1.110901    0.611480
      8          6           0       -0.939369    2.872931   -0.955170
      9          6           0        0.421231    3.137510   -1.075460
     10          6           0        0.790931    1.406470    0.526000
     11          1           0       -1.683199    3.445231   -1.510050
     12          1           0        0.784681    3.918360   -1.746920
     13          7           0       -2.680110   -0.750049    0.438070
     14          6           0       -3.517570   -0.890789   -0.343210
     15          6           0       -4.514300   -1.114129   -1.344810
     16          6           0       -4.148510   -1.036089   -2.696740
     17          6           0       -5.112140   -1.262879   -3.673140
     18          6           0       -5.830770   -1.415719   -0.967650
     19          1           0       -3.120590   -0.795099   -2.971780
     20          1           0       -6.100490   -1.461429    0.087930
     21          7           0       -0.044770   -1.876350    0.635790
     22          6           0        0.093900   -3.688770   -0.929810
     23          6           0        1.476340   -3.546250   -1.015610
     24          1           0       -0.432840   -4.450329   -1.505020
     25          6           0       -1.364819    1.853331   -0.114190
     26          1           0       -2.434329    1.651871   -0.012300
     27          6           0       -0.625400   -2.834229   -0.107280
     28          1           0       -1.708600   -2.923689   -0.036640
     29          1           0       -4.839270   -1.200369   -4.727740
     30          8           0        0.911650   -0.156530    3.842610
     31         16           0        3.034651    0.093530   -1.510710
     32         16           0        6.185301    0.590100   -1.383610
     33          6           0        1.317931    2.384650   -0.316880
     34          6           0        2.790571    2.601990   -0.357140
     35          6           0        3.318981    3.828200    0.060730
     36          6           0        4.694541    4.043370    0.082470
     37          6           0        5.566531    3.032170   -0.309990
     38          6           0        5.056011    1.816980   -0.772360
     39          6           0        3.671771    1.598520   -0.803590
     40          1           0        2.636801    4.612690    0.394830
     41          1           0        5.091741    5.000150    0.425600
     42          1           0        6.646821    3.184700   -0.269810
     43          6           0        4.098380   -1.115880   -0.752730
     44          6           0        5.482510   -0.897970   -0.717230
     45          6           0        6.335960   -1.879880   -0.208320
     46          6           0        5.812680   -3.094150    0.226180
     47          6           0        4.437750   -3.313870    0.197220
     48          6           0        3.564700   -2.325130   -0.267860
     49          1           0        7.410540   -1.692120   -0.164920
     50          1           0        6.481140   -3.868490    0.606210
     51          1           0        4.025850   -4.257490    0.561010
     52          6           0        2.095110   -2.563830   -0.244630
     53          1           0        2.066870   -4.185660   -1.674970
     54          6           0        1.286620   -1.781940    0.581820
     55          1           0        1.765110   -1.051550    1.231880
     56          1           0        1.474861    0.852410    1.166600
     57          6           0       -6.423800   -1.564779   -3.303420
     58          6           0       -6.781570   -1.641689   -1.956140
     59          1           0       -7.809910   -1.872589   -1.673970
     60          1           0       -7.177100   -1.739079   -4.074240
     61         35           0       -5.058639    2.446121   -0.051050
 ---------------------------------------------------------------------
 Rotational constants (GHZ):           0.1045893           0.0421198           0.0384116
 General basis read from cards:  (5D, 7F)
 There are  1894 symmetry adapted cartesian basis functions of A   symmetry.
 There are  1649 symmetry adapted basis functions of A   symmetry.
  1649 basis functions,  2653 primitive gaussians,  1894 cartesian basis functions
   174 alpha electrons      174 beta electrons
       nuclear repulsion energy      6435.2393160732 Hartrees.
 NAtoms=   61 NActive=   61 NUniq=   61 SFac= 1.00D+00 NAtFMM=   60 NAOKFM=T Big=T
 Integral buffers will be    131072 words long.
 Raffenetti 2 integral format.
 Two-electron integral symmetry is turned on.
 Nuclear repulsion after empirical dispersion term =     6435.1780349684 Hartrees.
 ------------------------------------------------------------------------------
 Polarizable Continuum Model (PCM)
 =================================
 Model                : PCM.
 Atomic radii         : UFF (Universal Force Field).
 Polarization charges : Total charges.
 Charge compensation  : None.
 Solution method      : On-the-fly selection.
 Cavity type          : Scaled VdW (van der Waals Surface) (Alpha=1.100).
 Cavity algorithm     : GePol (No added spheres)
                        Default sphere list used, NSphG=   61.
                        Lebedev-Laikov grids with approx.  5.0 points / Ang**2.
                        Smoothing algorithm: York/Karplus (Gamma=1.0000).
                        Polarization charges: spherical gaussians, with
                                              point-specific exponents (IZeta= 3).
                        Self-potential: point-specific (ISelfS= 7).
                        Self-field    : sphere-specific E.n sum rule (ISelfD= 2).
 Solvent              : TetraHydroFuran, Eps=   7.425700 Eps(inf)=   1.974025
 ------------------------------------------------------------------------------
 One-electron integrals computed using PRISM.
 NBasis=  1649 RedAO= T EigKep=  4.64D-06  NBF=  1649
 NBsUse=  1649 1.00D-06 EigRej= -1.00D+00 NBFU=  1649
 ExpMin= 2.90D-02 ExpMax= 5.65D+05 ExpMxC= 5.46D+03 IAcc=3 IRadAn=         5 AccDes= 0.00D+00
 Harris functional with IExCor= 4639 and IRadAn=       5 diagonalized for initial guess.
 HarFok:  IExCor= 4639 AccDes= 0.00D+00 IRadAn=         5 IDoV= 1 UseB2=F ITyADJ=14
 ICtDFT=  3500011 ScaDFX=  1.000000  1.000000  1.000000  1.000000
 FoFCou: FMM=F IPFlag=           0 FMFlag=      100000 FMFlg1=        2001
         NFxFlg=           0 DoJE=T BraDBF=F KetDBF=T FulRan=T
         wScrn=  0.000000 ICntrl=       500 IOpCl=  0 I1Cent=   200000004 NGrid=           0
         NMat0=    1 NMatS0=      1 NMatT0=    0 NMatD0=    1 NMtDS0=    0 NMtDT0=    0
 Petite list used in FoFCou.
 Requested convergence on RMS density matrix=1.00D-08 within 128 cycles.
 Requested convergence on MAX density matrix=1.00D-06.
 Requested convergence on             energy=1.00D-06.
 No special actions if energy rises.
 Inv3:  Mode=1 IEnd=    73804800.
 Iteration    1 A*A^-1 deviation from unit magnitude is 3.44D-15 for   3951.
 Iteration    1 A*A^-1 deviation from orthogonality  is 2.00D-15 for   3951    606.
 Iteration    1 A^-1*A deviation from unit magnitude is 3.33D-15 for   1842.
 Iteration    1 A^-1*A deviation from orthogonality  is 3.55D-15 for   4179   1393.
 EnCoef did    23 forward-backward iterations
 EnCoef did    13 forward-backward iterations
 Error on total polarization charges =  0.02569
 SCF Done:  E(RwB97XD) =  -6142.59386076     A.U. after   19 cycles
            NFock= 19  Conv=0.40D-08     -V/T= 2.0025

 **********************************************************************

            Population analysis using the SCF density.

 **********************************************************************

 Orbital symmetries:
       Occupied  (A) (A) (A) (A) (A) (A) (A) (A) (A) (A) (A) (A)
                 (A) (A) (A) (A) (A) (A) (A) (A) (A) (A) (A) (A)
                 (A) (A) (A) (A) (A) (A) (A) (A) (A) (A) (A) (A)
                 (A) (A) (A) (A) (A) (A) (A) (A) (A) (A) (A) (A)
                 (A) (A) (A) (A) (A) (A) (A) (A) (A) (A) (A) (A)
                 (A) (A) (A) (A) (A) (A) (A) (A) (A) (A) (A) (A)
                 (A) (A) (A) (A) (A) (A) (A) (A) (A) (A) (A) (A)
                 (A) (A) (A) (A) (A) (A) (A) (A) (A) (A) (A) (A)
                 (A) (A) (A) (A) (A) (A) (A) (A) (A) (A) (A) (A)
                 (A) (A) (A) (A) (A) (A) (A) (A) (A) (A) (A) (A)
                 (A) (A) (A) (A) (A) (A) (A) (A) (A) (A) (A) (A)
                 (A) (A) (A) (A) (A) (A) (A) (A) (A) (A) (A) (A)
                 (A) (A) (A) (A) (A) (A) (A) (A) (A) (A) (A) (A)
                 (A) (A) (A) (A) (A) (A) (A) (A) (A) (A) (A) (A)
                 (A) (A) (A) (A) (A) (A)
       Virtual   (A) (A) (A) (A) (A) (A) (A) (A) (A) (A) (A) (A)
                 (A) (A) (A) (A) (A) (A) (A) (A) (A) (A) (A) (A)
                 (A) (A) (A) (A) (A) (A) (A) (A) (A) (A) (A) (A)
                 (A) (A) (A) (A) (A) (A) (A) (A) (A) (A) (A) (A)
                 (A) (A) (A) (A) (A) (A) (A) (A) (A) (A) (A) (A)
                 (A) (A) (A) (A) (A) (A) (A) (A) (A) (A) (A) (A)
                 (A) (A) (A) (A) (A) (A) (A) (A) (A) (A) (A) (A)
                 (A) (A) (A) (A) (A) (A) (A) (A) (A) (A) (A) (A)
                 (A) (A) (A) (A) (A) (A) (A) (A) (A) (A) (A) (A)
                 (A) (A) (A) (A) (A) (A) (A) (A) (A) (A) (A) (A)
                 (A) (A) (A) (A) (A) (A) (A) (A) (A) (A) (A) (A)
                 (A) (A) (A) (A) (A) (A) (A) (A) (A) (A) (A) (A)
                 (A) (A) (A) (A) (A) (A) (A) (A) (A) (A) (A) (A)
                 (A) (A) (A) (A) (A) (A) (A) (A) (A) (A) (A) (A)
                 (A) (A) (A) (A) (A) (A) (A) (A) (A) (A) (A) (A)
                 (A) (A) (A) (A) (A) (A) (A) (A) (A) (A) (A) (A)
                 (A) (A) (A) (A) (A) (A) (A) (A) (A) (A) (A) (A)
                 (A) (A) (A) (A) (A) (A) (A) (A) (A) (A) (A) (A)
                 (A) (A) (A) (A) (A) (A) (A) (A) (A) (A) (A) (A)
                 (A) (A) (A) (A) (A) (A) (A) (A) (A) (A) (A) (A)
                 (A) (A) (A) (A) (A) (A) (A) (A) (A) (A) (A) (A)
                 (A) (A) (A) (A) (A) (A) (A) (A) (A) (A) (A) (A)
                 (A) (A) (A) (A) (A) (A) (A) (A) (A) (A) (A) (A)
                 (A) (A) (A) (A) (A) (A) (A) (A) (A) (A) (A) (A)
                 (A) (A) (A) (A) (A) (A) (A) (A) (A) (A) (A) (A)
                 (A) (A) (A) (A) (A) (A) (A) (A) (A) (A) (A) (A)
                 (A) (A) (A) (A) (A) (A) (A) (A) (A) (A) (A) (A)
                 (A) (A) (A) (A) (A) (A) (A) (A) (A) (A) (A) (A)
                 (A) (A) (A) (A) (A) (A) (A) (A) (A) (A) (A) (A)
                 (A) (A) (A) (A) (A) (A) (A) (A) (A) (A) (A) (A)
                 (A) (A) (A) (A) (A) (A) (A) (A) (A) (A) (A) (A)
                 (A) (A) (A) (A) (A) (A) (A) (A) (A) (A) (A) (A)
                 (A) (A) (A) (A) (A) (A) (A) (A) (A) (A) (A) (A)
                 (A) (A) (A) (A) (A) (A) (A) (A) (A) (A) (A) (A)
                 (A) (A) (A) (A) (A) (A) (A) (A) (A) (A) (A) (A)
                 (A) (A) (A) (A) (A) (A) (A) (A) (A) (A) (A) (A)
                 (A) (A) (A) (A) (A) (A) (A) (A) (A) (A) (A) (A)
                 (A) (A) (A) (A) (A) (A) (A) (A) (A) (A) (A) (A)
                 (A) (A) (A) (A) (A) (A) (A) (A) (A) (A) (A) (A)
                 (A) (A) (A) (A) (A) (A) (A) (A) (A) (A) (A) (A)
                 (A) (A) (A) (A) (A) (A) (A) (A) (A) (A) (A) (A)
                 (A) (A) (A) (A) (A) (A) (A) (A) (A) (A) (A) (A)
                 (A) (A) (A) (A) (A) (A) (A) (A) (A) (A) (A) (A)
                 (A) (A) (A) (A) (A) (A) (A) (A) (A) (A) (A) (A)
                 (A) (A) (A) (A) (A) (A) (A) (A) (A) (A) (A) (A)
                 (A) (A) (A) (A) (A) (A) (A) (A) (A) (A) (A) (A)
                 (A) (A) (A) (A) (A) (A) (A) (A) (A) (A) (A) (A)
                 (A) (A) (A) (A) (A) (A) (A) (A) (A) (A) (A) (A)
                 (A) (A) (A) (A) (A) (A) (A) (A) (A) (A) (A) (A)
                 (A) (A) (A) (A) (A) (A) (A) (A) (A) (A) (A) (A)
                 (A) (A) (A) (A) (A) (A) (A) (A) (A) (A) (A) (A)
                 (A) (A) (A) (A) (A) (A) (A) (A) (A) (A) (A) (A)
                 (A) (A) (A) (A) (A) (A) (A) (A) (A) (A) (A) (A)
                 (A) (A) (A) (A) (A) (A) (A) (A) (A) (A) (A) (A)
                 (A) (A) (A) (A) (A) (A) (A) (A) (A) (A) (A) (A)
                 (A) (A) (A) (A) (A) (A) (A) (A) (A) (A) (A) (A)
                 (A) (A) (A) (A) (A) (A) (A) (A) (A) (A) (A) (A)
                 (A) (A) (A) (A) (A) (A) (A) (A) (A) (A) (A) (A)
                 (A) (A) (A) (A) (A) (A) (A) (A) (A) (A) (A) (A)
                 (A) (A) (A) (A) (A) (A) (A) (A) (A) (A) (A) (A)
                 (A) (A) (A) (A) (A) (A) (A) (A) (A) (A) (A) (A)
                 (A) (A) (A) (A) (A) (A) (A) (A) (A) (A) (A) (A)
                 (A) (A) (A) (A) (A) (A) (A) (A) (A) (A) (A) (A)
                 (A) (A) (A) (A) (A) (A) (A) (A) (A) (A) (A) (A)
                 (A) (A) (A) (A) (A) (A) (A) (A) (A) (A) (A) (A)
                 (A) (A) (A) (A) (A) (A) (A) (A) (A) (A) (A) (A)
                 (A) (A) (A) (A) (A) (A) (A) (A) (A) (A) (A) (A)
                 (A) (A) (A) (A) (A) (A) (A) (A) (A) (A) (A) (A)
                 (A) (A) (A) (A) (A) (A) (A) (A) (A) (A) (A) (A)
                 (A) (A) (A) (A) (A) (A) (A) (A) (A) (A) (A) (A)
                 (A) (A) (A) (A) (A) (A) (A) (A) (A) (A) (A) (A)
                 (A) (A) (A) (A) (A) (A) (A) (A) (A) (A) (A) (A)
                 (A) (A) (A) (A) (A) (A) (A) (A) (A) (A) (A) (A)
                 (A) (A) (A) (A) (A) (A) (A) (A) (A) (A) (A) (A)
                 (A) (A) (A) (A) (A) (A) (A) (A) (A) (A) (A) (A)
                 (A) (A) (A) (A) (A) (A) (A) (A) (A) (A) (A) (A)
                 (A) (A) (A) (A) (A) (A) (A) (A) (A) (A) (A) (A)
                 (A) (A) (A) (A) (A) (A) (A) (A) (A) (A) (A) (A)
                 (A) (A) (A) (A) (A) (A) (A) (A) (A) (A) (A) (A)
                 (A) (A) (A) (A) (A) (A) (A) (A) (A) (A) (A) (A)
                 (A) (A) (A) (A) (A) (A) (A) (A) (A) (A) (A) (A)
                 (A) (A) (A) (A) (A) (A) (A) (A) (A) (A) (A) (A)
                 (A) (A) (A) (A) (A) (A) (A) (A) (A) (A) (A) (A)
                 (A) (A) (A) (A) (A) (A) (A) (A) (A) (A) (A) (A)
                 (A) (A) (A) (A) (A) (A) (A) (A) (A) (A) (A) (A)
                 (A) (A) (A) (A) (A) (A) (A) (A) (A) (A) (A) (A)
                 (A) (A) (A) (A) (A) (A) (A) (A) (A) (A) (A) (A)
                 (A) (A) (A) (A) (A) (A) (A) (A) (A) (A) (A) (A)
                 (A) (A) (A) (A) (A) (A) (A) (A) (A) (A) (A) (A)
                 (A) (A) (A) (A) (A) (A) (A) (A) (A) (A) (A) (A)
                 (A) (A) (A) (A) (A) (A) (A) (A) (A) (A) (A) (A)
                 (A) (A) (A) (A) (A) (A) (A) (A) (A) (A) (A) (A)
                 (A) (A) (A) (A) (A) (A) (A) (A) (A) (A) (A) (A)
                 (A) (A) (A) (A) (A) (A) (A) (A) (A) (A) (A) (A)
                 (A) (A) (A) (A) (A) (A) (A) (A) (A) (A) (A) (A)
                 (A) (A) (A) (A) (A) (A) (A) (A) (A) (A) (A) (A)
                 (A) (A) (A) (A) (A) (A) (A) (A) (A) (A) (A) (A)
                 (A) (A) (A) (A) (A) (A) (A) (A) (A) (A) (A) (A)
                 (A) (A) (A) (A) (A) (A) (A) (A) (A) (A) (A) (A)
                 (A) (A) (A) (A) (A) (A) (A) (A) (A) (A) (A) (A)
                 (A) (A) (A) (A) (A) (A) (A) (A) (A) (A) (A) (A)
                 (A) (A) (A) (A) (A) (A) (A) (A) (A) (A) (A) (A)
                 (A) (A) (A) (A) (A) (A) (A) (A) (A) (A) (A) (A)
                 (A) (A) (A) (A) (A) (A) (A) (A) (A) (A) (A) (A)
                 (A) (A) (A) (A) (A) (A) (A) (A) (A) (A) (A) (A)
                 (A) (A) (A) (A) (A) (A) (A) (A) (A) (A) (A) (A)
                 (A) (A) (A) (A) (A) (A) (A) (A) (A) (A) (A) (A)
                 (A) (A) (A) (A) (A) (A) (A) (A) (A) (A) (A) (A)
                 (A) (A) (A) (A) (A) (A) (A) (A) (A) (A) (A) (A)
                 (A) (A) (A) (A) (A) (A) (A) (A) (A) (A) (A) (A)
                 (A) (A) (A) (A) (A) (A) (A) (A) (A) (A) (A) (A)
                 (A) (A) (A) (A) (A) (A) (A) (A) (A) (A) (A) (A)
                 (A) (A) (A) (A) (A) (A) (A) (A) (A) (A) (A) (A)
                 (A) (A) (A) (A) (A) (A) (A) (A) (A) (A) (A) (A)
                 (A) (A) (A) (A) (A) (A) (A) (A) (A) (A) (A) (A)
                 (A) (A) (A) (A) (A) (A) (A) (A) (A) (A) (A) (A)
                 (A) (A) (A) (A) (A) (A) (A) (A) (A) (A) (A) (A)
                 (A) (A) (A) (A) (A) (A) (A) (A) (A) (A) (A) (A)
                 (A) (A) (A) (A) (A) (A) (A) (A) (A) (A) (A) (A)
                 (A) (A) (A) (A) (A) (A) (A) (A) (A) (A) (A) (A)
                 (A) (A) (A) (A) (A) (A) (A) (A) (A) (A) (A) (A)
                 (A) (A) (A) (A) (A) (A) (A) (A) (A) (A) (A) (A)
                 (A) (A) (A) (A) (A) (A) (A) (A) (A) (A) (A)
 The electronic state is 1-A.
 Alpha  occ. eigenvalues -- -483.01526-235.71498 -89.05123 -89.05021 -62.56424
 Alpha  occ. eigenvalues --  -56.35300 -56.35298 -56.35296 -27.48262 -23.54087
 Alpha  occ. eigenvalues --  -23.53862 -23.53850 -19.33791 -19.33703 -19.33467
 Alpha  occ. eigenvalues --  -14.49793 -14.49150 -14.48436 -10.41093 -10.41075
 Alpha  occ. eigenvalues --  -10.40858 -10.37553 -10.35829 -10.35398 -10.35259
 Alpha  occ. eigenvalues --  -10.35099 -10.34988 -10.34792 -10.34755 -10.34706
 Alpha  occ. eigenvalues --  -10.34105 -10.33685 -10.33436 -10.33394 -10.33209
 Alpha  occ. eigenvalues --  -10.33106 -10.32788 -10.32340 -10.32327 -10.32204
 Alpha  occ. eigenvalues --  -10.31580 -10.31475 -10.31449 -10.31409 -10.31356
 Alpha  occ. eigenvalues --  -10.31207 -10.31194 -10.31115 -10.31054 -10.31034
 Alpha  occ. eigenvalues --   -8.70495  -8.08428  -8.08308  -6.51903  -6.51894
 Alpha  occ. eigenvalues --   -6.51889  -6.03296  -6.03176  -6.02937  -6.02812
 Alpha  occ. eigenvalues --   -6.02370  -6.02259  -3.27248  -2.62405  -2.62404
 Alpha  occ. eigenvalues --   -2.62399  -2.62393  -2.62392  -2.12768  -2.12297
 Alpha  occ. eigenvalues --   -2.12253  -1.24934  -1.24842  -1.24628  -1.09251
 Alpha  occ. eigenvalues --   -1.08421  -1.05936  -1.01586  -0.99393  -0.98817
 Alpha  occ. eigenvalues --   -0.95271  -0.94143  -0.92528  -0.91734  -0.90401
 Alpha  occ. eigenvalues --   -0.89195  -0.88770  -0.87202  -0.87135  -0.86076
 Alpha  occ. eigenvalues --   -0.83318  -0.79222  -0.76665  -0.76132  -0.76024
 Alpha  occ. eigenvalues --   -0.75737  -0.75311  -0.74552  -0.72807  -0.72559
 Alpha  occ. eigenvalues --   -0.70851  -0.70240  -0.69430  -0.67477  -0.66437
 Alpha  occ. eigenvalues --   -0.66254  -0.66157  -0.65191  -0.64452  -0.62483
 Alpha  occ. eigenvalues --   -0.61604  -0.60802  -0.60419  -0.59997  -0.59019
 Alpha  occ. eigenvalues --   -0.58215  -0.57843  -0.57666  -0.57433  -0.57330
 Alpha  occ. eigenvalues --   -0.57183  -0.57054  -0.56762  -0.55821  -0.55493
 Alpha  occ. eigenvalues --   -0.55032  -0.54897  -0.54604  -0.54148  -0.54055
 Alpha  occ. eigenvalues --   -0.53514  -0.53228  -0.53022  -0.52509  -0.52372
 Alpha  occ. eigenvalues --   -0.52278  -0.52053  -0.51984  -0.51451  -0.51231
 Alpha  occ. eigenvalues --   -0.50627  -0.49816  -0.49136  -0.48354  -0.48263
 Alpha  occ. eigenvalues --   -0.47762  -0.47348  -0.46224  -0.45993  -0.45109
 Alpha  occ. eigenvalues --   -0.44822  -0.44454  -0.44156  -0.43917  -0.42215
 Alpha  occ. eigenvalues --   -0.41405  -0.40518  -0.39929  -0.39808  -0.38663
 Alpha  occ. eigenvalues --   -0.37349  -0.36787  -0.36170  -0.35618  -0.35516
 Alpha  occ. eigenvalues --   -0.34385  -0.33066  -0.32604  -0.32459  -0.31443
 Alpha  occ. eigenvalues --   -0.30368  -0.29692  -0.29600  -0.29511
 Alpha virt. eigenvalues --   -0.00777  -0.00342   0.00184   0.00470   0.01411
 Alpha virt. eigenvalues --    0.02336   0.02738   0.03226   0.03488   0.03662
 Alpha virt. eigenvalues --    0.03814   0.04442   0.04565   0.06310   0.06622
 Alpha virt. eigenvalues --    0.07665   0.07708   0.07828   0.08468   0.08786
 Alpha virt. eigenvalues --    0.09446   0.09492   0.09737   0.09911   0.10180
 Alpha virt. eigenvalues --    0.11593   0.12058   0.12532   0.12812   0.13339
 Alpha virt. eigenvalues --    0.13434   0.14002   0.14242   0.14478   0.15080
 Alpha virt. eigenvalues --    0.15482   0.16032   0.16416   0.16438   0.16650
 Alpha virt. eigenvalues --    0.17181   0.17294   0.17955   0.18087   0.18171
 Alpha virt. eigenvalues --    0.18247   0.18801   0.18997   0.19053   0.19270
 Alpha virt. eigenvalues --    0.19527   0.19824   0.20268   0.20611   0.20961
 Alpha virt. eigenvalues --    0.21147   0.21265   0.21925   0.22218   0.22462
 Alpha virt. eigenvalues --    0.22570   0.23345   0.23646   0.23881   0.24230
 Alpha virt. eigenvalues --    0.24454   0.25141   0.25386   0.25654   0.26146
 Alpha virt. eigenvalues --    0.26380   0.26678   0.27048   0.27157   0.27580
 Alpha virt. eigenvalues --    0.27743   0.27947   0.28093   0.28603   0.28867
 Alpha virt. eigenvalues --    0.29168   0.29294   0.29566   0.29839   0.30327
 Alpha virt. eigenvalues --    0.30377   0.30415   0.30638   0.30830   0.31137
 Alpha virt. eigenvalues --    0.31376   0.31665   0.31781   0.32238   0.32463
 Alpha virt. eigenvalues --    0.32749   0.32771   0.33082   0.33313   0.33658
 Alpha virt. eigenvalues --    0.33885   0.34085   0.34293   0.34495   0.34649
 Alpha virt. eigenvalues --    0.34927   0.35141   0.35199   0.35731   0.35812
 Alpha virt. eigenvalues --    0.35936   0.36000   0.36789   0.36895   0.37075
 Alpha virt. eigenvalues --    0.37468   0.37661   0.37830   0.38096   0.38264
 Alpha virt. eigenvalues --    0.38673   0.38846   0.39163   0.39213   0.39682
 Alpha virt. eigenvalues --    0.39972   0.40221   0.40369   0.40808   0.41072
 Alpha virt. eigenvalues --    0.41385   0.41672   0.41785   0.41903   0.42173
 Alpha virt. eigenvalues --    0.42530   0.42761   0.42919   0.43219   0.43347
 Alpha virt. eigenvalues --    0.43639   0.43865   0.44027   0.44518   0.44760
 Alpha virt. eigenvalues --    0.44885   0.45360   0.45519   0.46231   0.46418
 Alpha virt. eigenvalues --    0.46892   0.47134   0.47370   0.47517   0.47673
 Alpha virt. eigenvalues --    0.47760   0.48067   0.48220   0.48466   0.48873
 Alpha virt. eigenvalues --    0.49040   0.49144   0.49519   0.49600   0.49699
 Alpha virt. eigenvalues --    0.49833   0.50093   0.50388   0.50818   0.50945
 Alpha virt. eigenvalues --    0.51095   0.51228   0.51768   0.52200   0.52372
 Alpha virt. eigenvalues --    0.52495   0.52888   0.53209   0.53506   0.53669
 Alpha virt. eigenvalues --    0.53853   0.54163   0.54256   0.54741   0.54774
 Alpha virt. eigenvalues --    0.54928   0.55232   0.55356   0.55464   0.55869
 Alpha virt. eigenvalues --    0.56225   0.56596   0.56646   0.57027   0.57202
 Alpha virt. eigenvalues --    0.57418   0.57989   0.58148   0.58303   0.58451
 Alpha virt. eigenvalues --    0.58740   0.58853   0.59061   0.59246   0.59799
 Alpha virt. eigenvalues --    0.60102   0.60367   0.60960   0.61021   0.61422
 Alpha virt. eigenvalues --    0.61642   0.61724   0.62155   0.62422   0.62485
 Alpha virt. eigenvalues --    0.62892   0.63120   0.63636   0.64030   0.64087
 Alpha virt. eigenvalues --    0.64529   0.64887   0.65251   0.65304   0.65624
 Alpha virt. eigenvalues --    0.65943   0.66069   0.66360   0.66586   0.67289
 Alpha virt. eigenvalues --    0.67510   0.67635   0.68068   0.68449   0.68522
 Alpha virt. eigenvalues --    0.68738   0.69392   0.69777   0.70247   0.70513
 Alpha virt. eigenvalues --    0.70641   0.71015   0.71531   0.71548   0.71894
 Alpha virt. eigenvalues --    0.72321   0.72558   0.72683   0.73238   0.73323
 Alpha virt. eigenvalues --    0.73664   0.73836   0.74081   0.74175   0.74403
 Alpha virt. eigenvalues --    0.74645   0.75207   0.75301   0.75515   0.75636
 Alpha virt. eigenvalues --    0.76102   0.76368   0.76814   0.76883   0.77006
 Alpha virt. eigenvalues --    0.77455   0.77720   0.77968   0.78281   0.78656
 Alpha virt. eigenvalues --    0.79115   0.79438   0.79600   0.79887   0.80037
 Alpha virt. eigenvalues --    0.80483   0.80678   0.81145   0.81397   0.81808
 Alpha virt. eigenvalues --    0.81886   0.82185   0.82649   0.83163   0.83294
 Alpha virt. eigenvalues --    0.83325   0.84023   0.84479   0.84955   0.85104
 Alpha virt. eigenvalues --    0.85431   0.85575   0.86182   0.86625   0.86836
 Alpha virt. eigenvalues --    0.86963   0.87565   0.87592   0.87813   0.88490
 Alpha virt. eigenvalues --    0.89025   0.89151   0.89498   0.89901   0.90225
 Alpha virt. eigenvalues --    0.90304   0.90506   0.91030   0.91127   0.91361
 Alpha virt. eigenvalues --    0.91774   0.91931   0.92366   0.92683   0.92995
 Alpha virt. eigenvalues --    0.93225   0.93576   0.93649   0.93706   0.94739
 Alpha virt. eigenvalues --    0.94809   0.95206   0.95793   0.95896   0.96107
 Alpha virt. eigenvalues --    0.96761   0.97129   0.97608   0.97717   0.98112
 Alpha virt. eigenvalues --    0.98333   0.98517   0.99061   0.99412   0.99629
 Alpha virt. eigenvalues --    1.00298   1.00535   1.00798   1.01454   1.01493
 Alpha virt. eigenvalues --    1.02058   1.02339   1.02651   1.02996   1.03353
 Alpha virt. eigenvalues --    1.03889   1.04314   1.04403   1.04593   1.04980
 Alpha virt. eigenvalues --    1.05428   1.05908   1.05933   1.06574   1.07097
 Alpha virt. eigenvalues --    1.07370   1.07513   1.07799   1.08002   1.08663
 Alpha virt. eigenvalues --    1.09393   1.09525   1.09614   1.09902   1.10177
 Alpha virt. eigenvalues --    1.10674   1.11474   1.12084   1.12577   1.12732
 Alpha virt. eigenvalues --    1.12846   1.13078   1.13695   1.13986   1.14519
 Alpha virt. eigenvalues --    1.14706   1.14788   1.15317   1.15694   1.16101
 Alpha virt. eigenvalues --    1.16398   1.16784   1.17115   1.17545   1.18061
 Alpha virt. eigenvalues --    1.18280   1.18626   1.18972   1.19401   1.19428
 Alpha virt. eigenvalues --    1.20003   1.20143   1.20766   1.21512   1.21943
 Alpha virt. eigenvalues --    1.22322   1.22507   1.22989   1.23212   1.23619
 Alpha virt. eigenvalues --    1.24158   1.24555   1.25132   1.25406   1.25954
 Alpha virt. eigenvalues --    1.26012   1.26189   1.26518   1.27078   1.27362
 Alpha virt. eigenvalues --    1.28024   1.28274   1.28641   1.29486   1.29745
 Alpha virt. eigenvalues --    1.29892   1.30225   1.30345   1.30553   1.31095
 Alpha virt. eigenvalues --    1.31711   1.32259   1.32431   1.32599   1.32886
 Alpha virt. eigenvalues --    1.32922   1.33877   1.34139   1.34445   1.34736
 Alpha virt. eigenvalues --    1.35006   1.35324   1.35758   1.36028   1.36652
 Alpha virt. eigenvalues --    1.36765   1.37052   1.37433   1.37844   1.37913
 Alpha virt. eigenvalues --    1.38703   1.39491   1.39765   1.39833   1.40033
 Alpha virt. eigenvalues --    1.40323   1.40871   1.41015   1.41127   1.41606
 Alpha virt. eigenvalues --    1.41727   1.42339   1.42489   1.42796   1.43639
 Alpha virt. eigenvalues --    1.44000   1.44249   1.44415   1.44665   1.44989
 Alpha virt. eigenvalues --    1.45154   1.45818   1.46314   1.46468   1.46856
 Alpha virt. eigenvalues --    1.47016   1.47669   1.48243   1.48322   1.48969
 Alpha virt. eigenvalues --    1.49063   1.49325   1.49797   1.50062   1.50102
 Alpha virt. eigenvalues --    1.51274   1.51370   1.51604   1.51643   1.51872
 Alpha virt. eigenvalues --    1.52413   1.53145   1.53490   1.53818   1.54237
 Alpha virt. eigenvalues --    1.54709   1.54800   1.55220   1.55751   1.55890
 Alpha virt. eigenvalues --    1.56073   1.56733   1.57073   1.57391   1.58110
 Alpha virt. eigenvalues --    1.58434   1.58533   1.58679   1.59266   1.59910
 Alpha virt. eigenvalues --    1.60267   1.60733   1.60887   1.61279   1.61624
 Alpha virt. eigenvalues --    1.62054   1.62241   1.62459   1.62861   1.63254
 Alpha virt. eigenvalues --    1.63488   1.63669   1.63958   1.64253   1.64502
 Alpha virt. eigenvalues --    1.64846   1.65007   1.65213   1.65495   1.65586
 Alpha virt. eigenvalues --    1.65976   1.66860   1.67137   1.67655   1.67826
 Alpha virt. eigenvalues --    1.68370   1.68514   1.68843   1.69403   1.69469
 Alpha virt. eigenvalues --    1.69733   1.70077   1.70527   1.70749   1.71063
 Alpha virt. eigenvalues --    1.71258   1.71354   1.71607   1.71702   1.72077
 Alpha virt. eigenvalues --    1.72209   1.72501   1.72784   1.72895   1.73406
 Alpha virt. eigenvalues --    1.73627   1.73783   1.73923   1.74309   1.74594
 Alpha virt. eigenvalues --    1.74676   1.75178   1.75716   1.76595   1.76820
 Alpha virt. eigenvalues --    1.77311   1.77553   1.78074   1.78246   1.78692
 Alpha virt. eigenvalues --    1.79039   1.79110   1.79841   1.80075   1.80489
 Alpha virt. eigenvalues --    1.80845   1.80991   1.81223   1.81708   1.81989
 Alpha virt. eigenvalues --    1.82422   1.83253   1.83379   1.83620   1.83877
 Alpha virt. eigenvalues --    1.84424   1.84865   1.85178   1.85675   1.85789
 Alpha virt. eigenvalues --    1.86481   1.86733   1.87176   1.87368   1.87975
 Alpha virt. eigenvalues --    1.88109   1.88684   1.88950   1.89734   1.90232
 Alpha virt. eigenvalues --    1.90515   1.91190   1.91428   1.91528   1.92743
 Alpha virt. eigenvalues --    1.92910   1.93280   1.93676   1.93955   1.94812
 Alpha virt. eigenvalues --    1.95798   1.96226   1.96514   1.96953   1.97350
 Alpha virt. eigenvalues --    1.98419   1.98759   1.99212   1.99519   2.00239
 Alpha virt. eigenvalues --    2.00486   2.01185   2.01518   2.01749   2.02234
 Alpha virt. eigenvalues --    2.02888   2.03208   2.04125   2.04605   2.04962
 Alpha virt. eigenvalues --    2.05226   2.05407   2.05505   2.06308   2.07022
 Alpha virt. eigenvalues --    2.07176   2.07238   2.07622   2.08573   2.08752
 Alpha virt. eigenvalues --    2.09562   2.09721   2.09776   2.10142   2.10877
 Alpha virt. eigenvalues --    2.11491   2.11699   2.11992   2.12719   2.12847
 Alpha virt. eigenvalues --    2.13755   2.14055   2.14249   2.14648   2.16027
 Alpha virt. eigenvalues --    2.16121   2.16322   2.16484   2.17395   2.17682
 Alpha virt. eigenvalues --    2.18215   2.18850   2.19936   2.20368   2.21191
 Alpha virt. eigenvalues --    2.21726   2.21964   2.22708   2.23325   2.23518
 Alpha virt. eigenvalues --    2.23745   2.25088   2.25594   2.27234   2.27420
 Alpha virt. eigenvalues --    2.27797   2.28825   2.29091   2.29740   2.29891
 Alpha virt. eigenvalues --    2.31968   2.32496   2.33195   2.33557   2.33807
 Alpha virt. eigenvalues --    2.34238   2.34538   2.34916   2.35016   2.36474
 Alpha virt. eigenvalues --    2.36858   2.37327   2.37499   2.38496   2.38833
 Alpha virt. eigenvalues --    2.39455   2.40219   2.41224   2.41713   2.42044
 Alpha virt. eigenvalues --    2.42318   2.42743   2.42935   2.43308   2.43550
 Alpha virt. eigenvalues --    2.44241   2.44397   2.45885   2.46376   2.46775
 Alpha virt. eigenvalues --    2.46969   2.47834   2.47957   2.48775   2.49425
 Alpha virt. eigenvalues --    2.49617   2.50315   2.50974   2.51429   2.51847
 Alpha virt. eigenvalues --    2.53121   2.53760   2.56346   2.56606   2.58182
 Alpha virt. eigenvalues --    2.58630   2.59768   2.60457   2.61379   2.62330
 Alpha virt. eigenvalues --    2.62713   2.63351   2.64270   2.64579   2.65825
 Alpha virt. eigenvalues --    2.65875   2.66206   2.66805   2.67767   2.68258
 Alpha virt. eigenvalues --    2.69481   2.69940   2.70146   2.70684   2.71319
 Alpha virt. eigenvalues --    2.71697   2.72285   2.72615   2.72896   2.73271
 Alpha virt. eigenvalues --    2.74474   2.74624   2.75424   2.75563   2.76041
 Alpha virt. eigenvalues --    2.76263   2.76440   2.76990   2.77474   2.78018
 Alpha virt. eigenvalues --    2.78966   2.79110   2.79366   2.79583   2.79690
 Alpha virt. eigenvalues --    2.80022   2.80231   2.80278   2.80464   2.80850
 Alpha virt. eigenvalues --    2.81069   2.81716   2.81973   2.82215   2.82704
 Alpha virt. eigenvalues --    2.84385   2.84832   2.85071   2.85476   2.85671
 Alpha virt. eigenvalues --    2.86678   2.86878   2.87008   2.87225   2.87446
 Alpha virt. eigenvalues --    2.87988   2.88213   2.88739   2.88986   2.89476
 Alpha virt. eigenvalues --    2.89607   2.90044   2.90820   2.91221   2.91379
 Alpha virt. eigenvalues --    2.92110   2.92407   2.92654   2.93468   2.93784
 Alpha virt. eigenvalues --    2.94780   2.95309   2.95675   2.95775   2.96346
 Alpha virt. eigenvalues --    2.96498   2.96714   2.97173   2.97323   2.97580
 Alpha virt. eigenvalues --    2.98018   2.98297   2.98853   2.99259   2.99670
 Alpha virt. eigenvalues --    2.99825   3.00176   3.00402   3.00854   3.01010
 Alpha virt. eigenvalues --    3.01169   3.01366   3.01805   3.01833   3.02384
 Alpha virt. eigenvalues --    3.02664   3.02893   3.03446   3.03683   3.03920
 Alpha virt. eigenvalues --    3.04656   3.04869   3.05169   3.05579   3.05819
 Alpha virt. eigenvalues --    3.06017   3.06128   3.06603   3.06798   3.07750
 Alpha virt. eigenvalues --    3.07896   3.07941   3.08407   3.08803   3.09093
 Alpha virt. eigenvalues --    3.09353   3.09560   3.09718   3.09911   3.10219
 Alpha virt. eigenvalues --    3.10701   3.10899   3.11061   3.11710   3.12018
 Alpha virt. eigenvalues --    3.12076   3.12349   3.12355   3.12598   3.12821
 Alpha virt. eigenvalues --    3.13223   3.13764   3.14437   3.14596   3.14671
 Alpha virt. eigenvalues --    3.14947   3.15105   3.15762   3.15826   3.16093
 Alpha virt. eigenvalues --    3.16227   3.16488   3.17329   3.17511   3.17830
 Alpha virt. eigenvalues --    3.17855   3.18249   3.19106   3.19243   3.19314
 Alpha virt. eigenvalues --    3.19519   3.19826   3.20124   3.20596   3.20959
 Alpha virt. eigenvalues --    3.21100   3.21457   3.21675   3.21894   3.22159
 Alpha virt. eigenvalues --    3.22551   3.22684   3.22901   3.22945   3.23135
 Alpha virt. eigenvalues --    3.23318   3.23599   3.24010   3.24275   3.24676
 Alpha virt. eigenvalues --    3.24998   3.25166   3.25783   3.25880   3.26067
 Alpha virt. eigenvalues --    3.26368   3.26660   3.26991   3.27371   3.27505
 Alpha virt. eigenvalues --    3.28060   3.28242   3.28404   3.28959   3.29076
 Alpha virt. eigenvalues --    3.29520   3.29897   3.30351   3.30898   3.31496
 Alpha virt. eigenvalues --    3.31964   3.32063   3.32327   3.32477   3.32960
 Alpha virt. eigenvalues --    3.33126   3.33447   3.33876   3.34203   3.34680
 Alpha virt. eigenvalues --    3.35217   3.35685   3.36022   3.36131   3.36457
 Alpha virt. eigenvalues --    3.37202   3.38159   3.38203   3.38659   3.39048
 Alpha virt. eigenvalues --    3.39356   3.39620   3.40132   3.40469   3.41385
 Alpha virt. eigenvalues --    3.41727   3.42140   3.42301   3.42775   3.42867
 Alpha virt. eigenvalues --    3.43140   3.43651   3.43992   3.44311   3.44731
 Alpha virt. eigenvalues --    3.44772   3.44973   3.45072   3.45609   3.45980
 Alpha virt. eigenvalues --    3.46131   3.46436   3.46632   3.46958   3.47478
 Alpha virt. eigenvalues --    3.47844   3.47965   3.48526   3.48991   3.49286
 Alpha virt. eigenvalues --    3.49674   3.49740   3.50674   3.51069   3.51216
 Alpha virt. eigenvalues --    3.51995   3.52186   3.52519   3.53052   3.53259
 Alpha virt. eigenvalues --    3.53334   3.53807   3.54166   3.54269   3.54529
 Alpha virt. eigenvalues --    3.54905   3.55126   3.55518   3.56446   3.56545
 Alpha virt. eigenvalues --    3.57282   3.57426   3.57789   3.58047   3.58513
 Alpha virt. eigenvalues --    3.59121   3.59185   3.59210   3.59334   3.59927
 Alpha virt. eigenvalues --    3.60306   3.60616   3.61636   3.62056   3.62418
 Alpha virt. eigenvalues --    3.63310   3.63908   3.64277   3.64383   3.65076
 Alpha virt. eigenvalues --    3.65348   3.66246   3.66318   3.66743   3.68213
 Alpha virt. eigenvalues --    3.68388   3.68975   3.69085   3.69807   3.69845
 Alpha virt. eigenvalues --    3.70852   3.71040   3.71294   3.71468   3.72432
 Alpha virt. eigenvalues --    3.73387   3.73618   3.74412   3.74573   3.74984
 Alpha virt. eigenvalues --    3.75595   3.75956   3.76721   3.77028   3.77731
 Alpha virt. eigenvalues --    3.78411   3.78700   3.79083   3.79234   3.79712
 Alpha virt. eigenvalues --    3.81028   3.81336   3.82401   3.82674   3.83153
 Alpha virt. eigenvalues --    3.83365   3.83611   3.83745   3.83924   3.84469
 Alpha virt. eigenvalues --    3.84769   3.85139   3.85266   3.85847   3.86216
 Alpha virt. eigenvalues --    3.86656   3.86909   3.87108   3.87353   3.87482
 Alpha virt. eigenvalues --    3.87791   3.88422   3.88691   3.89066   3.89207
 Alpha virt. eigenvalues --    3.89864   3.90160   3.90823   3.91516   3.91732
 Alpha virt. eigenvalues --    3.91813   3.92234   3.92507   3.93334   3.93731
 Alpha virt. eigenvalues --    3.94170   3.94347   3.95037   3.95416   3.95915
 Alpha virt. eigenvalues --    3.96042   3.96286   3.96401   3.96729   3.97272
 Alpha virt. eigenvalues --    3.98648   3.98788   3.99071   3.99510   4.00160
 Alpha virt. eigenvalues --    4.00403   4.00781   4.00837   4.01110   4.01436
 Alpha virt. eigenvalues --    4.02016   4.02331   4.02844   4.03373   4.04283
 Alpha virt. eigenvalues --    4.04752   4.05542   4.05869   4.06140   4.07351
 Alpha virt. eigenvalues --    4.07656   4.08057   4.08803   4.09419   4.09993
 Alpha virt. eigenvalues --    4.10163   4.11157   4.11995   4.12154   4.12330
 Alpha virt. eigenvalues --    4.12785   4.13060   4.13465   4.13668   4.14359
 Alpha virt. eigenvalues --    4.15015   4.15562   4.15830   4.16376   4.17170
 Alpha virt. eigenvalues --    4.17854   4.18930   4.19048   4.19542   4.20067
 Alpha virt. eigenvalues --    4.20077   4.21041   4.21655   4.21999   4.22206
 Alpha virt. eigenvalues --    4.22813   4.23012   4.23123   4.23940   4.24076
 Alpha virt. eigenvalues --    4.24392   4.24871   4.25237   4.25669   4.25972
 Alpha virt. eigenvalues --    4.26735   4.27203   4.27664   4.27785   4.28075
 Alpha virt. eigenvalues --    4.28271   4.29035   4.29439   4.29920   4.30697
 Alpha virt. eigenvalues --    4.30848   4.31478   4.31726   4.32275   4.32404
 Alpha virt. eigenvalues --    4.32608   4.32831   4.33445   4.33914   4.34212
 Alpha virt. eigenvalues --    4.34943   4.35361   4.35526   4.35726   4.37027
 Alpha virt. eigenvalues --    4.37347   4.37863   4.38011   4.38649   4.39038
 Alpha virt. eigenvalues --    4.39435   4.39525   4.40270   4.40633   4.41169
 Alpha virt. eigenvalues --    4.41530   4.42633   4.43451   4.43809   4.44436
 Alpha virt. eigenvalues --    4.45051   4.45153   4.45419   4.46025   4.46560
 Alpha virt. eigenvalues --    4.46933   4.47583   4.47965   4.48725   4.49513
 Alpha virt. eigenvalues --    4.50103   4.50230   4.52201   4.52900   4.53548
 Alpha virt. eigenvalues --    4.54183   4.55583   4.55765   4.56286   4.57700
 Alpha virt. eigenvalues --    4.58773   4.59158   4.59741   4.60281   4.61043
 Alpha virt. eigenvalues --    4.61949   4.62719   4.63719   4.65061   4.65359
 Alpha virt. eigenvalues --    4.65647   4.66427   4.66561   4.68259   4.69476
 Alpha virt. eigenvalues --    4.70110   4.70535   4.70847   4.70944   4.71678
 Alpha virt. eigenvalues --    4.72203   4.73736   4.73999   4.74595   4.74818
 Alpha virt. eigenvalues --    4.75781   4.77035   4.78025   4.78272   4.78587
 Alpha virt. eigenvalues --    4.78726   4.79347   4.79792   4.80163   4.80379
 Alpha virt. eigenvalues --    4.81155   4.82012   4.82841   4.83457   4.84273
 Alpha virt. eigenvalues --    4.84602   4.85558   4.85966   4.86706   4.88247
 Alpha virt. eigenvalues --    4.88889   4.90119   4.91037   4.91302   4.91958
 Alpha virt. eigenvalues --    4.93033   4.93496   4.93827   4.94195   4.94700
 Alpha virt. eigenvalues --    4.94993   4.95488   4.95994   4.96810   4.97111
 Alpha virt. eigenvalues --    4.98648   5.00725   5.01711   5.02806   5.03037
 Alpha virt. eigenvalues --    5.04159   5.04289   5.04937   5.05752   5.07736
 Alpha virt. eigenvalues --    5.08546   5.08815   5.10717   5.10926   5.13346
 Alpha virt. eigenvalues --    5.14552   5.15711   5.16284   5.16842   5.17840
 Alpha virt. eigenvalues --    5.17994   5.18025   5.18129   5.18446   5.18527
 Alpha virt. eigenvalues --    5.18733   5.20574   5.21218   5.21514   5.22146
 Alpha virt. eigenvalues --    5.23324   5.23815   5.24233   5.24527   5.26018
 Alpha virt. eigenvalues --    5.26603   5.26921   5.27563   5.28021   5.29306
 Alpha virt. eigenvalues --    5.29707   5.30370   5.30933   5.31469   5.32087
 Alpha virt. eigenvalues --    5.32532   5.32906   5.34079   5.34785   5.35622
 Alpha virt. eigenvalues --    5.36771   5.38116   5.39003   5.39674   5.40572
 Alpha virt. eigenvalues --    5.41145   5.41891   5.42839   5.43203   5.43554
 Alpha virt. eigenvalues --    5.44698   5.46114   5.46797   5.48234   5.48481
 Alpha virt. eigenvalues --    5.50031   5.50555   5.51869   5.52964   5.53962
 Alpha virt. eigenvalues --    5.55606   5.56827   5.57981   5.58396   5.58682
 Alpha virt. eigenvalues --    5.59594   5.60309   5.61101   5.63498   5.64181
 Alpha virt. eigenvalues --    5.64819   5.66337   5.68073   5.69239   5.70930
 Alpha virt. eigenvalues --    5.72783   5.73802   5.74458   5.74748   5.75655
 Alpha virt. eigenvalues --    5.75957   5.76562   5.76878   5.78827   5.79834
 Alpha virt. eigenvalues --    5.80888   5.81926   5.85888   5.88518   5.89330
 Alpha virt. eigenvalues --    5.94574   5.96966   5.98578   5.99611   6.02403
 Alpha virt. eigenvalues --    6.05754   6.06702   6.06750   6.08274   6.12021
 Alpha virt. eigenvalues --    6.18314   6.20055   6.20585   6.22072   6.24059
 Alpha virt. eigenvalues --    6.25997   6.26421   6.31514   6.32575   6.33783
 Alpha virt. eigenvalues --    6.33998   6.34692   6.35376   6.36713   6.38181
 Alpha virt. eigenvalues --    6.38898   6.42678   6.43321   6.43790   6.44322
 Alpha virt. eigenvalues --    6.46080   6.52469   6.68990   6.70360   6.71438
 Alpha virt. eigenvalues --    6.72589   6.74355   6.76540   6.81274   6.86807
 Alpha virt. eigenvalues --    6.87567   6.87738   6.87863   6.90352   6.91576
 Alpha virt. eigenvalues --    6.94022   6.95644   6.96797   7.00025   7.07561
 Alpha virt. eigenvalues --    7.09128   7.13927   7.16915   7.18678   7.19378
 Alpha virt. eigenvalues --    7.25422   7.25641   7.28444   7.37048   7.42487
 Alpha virt. eigenvalues --    7.44904   7.46422   7.51176   7.54293   7.55777
 Alpha virt. eigenvalues --    7.63465   7.74579   8.09666   8.35319   8.37082
 Alpha virt. eigenvalues --    8.37398   8.76030   8.79474   8.86139   9.07498
 Alpha virt. eigenvalues --    9.19081   9.43471   9.55854   9.62833   9.80096
 Alpha virt. eigenvalues --   20.22318  20.75057  22.48036  22.51297  22.80933
 Alpha virt. eigenvalues --   22.99642  23.05976  23.08024  23.08582  23.12899
 Alpha virt. eigenvalues --   23.14998  23.20095  23.21454  23.22377  23.24330
 Alpha virt. eigenvalues --   23.24724  23.25144  23.28922  23.30672  23.31109
 Alpha virt. eigenvalues --   23.31557  23.37093  23.38218  23.49688  23.53290
 Alpha virt. eigenvalues --   23.56997  23.58745  23.62309  23.77646  23.78930
 Alpha virt. eigenvalues --   23.84243  23.99714  24.03238  24.23174  32.90400
 Alpha virt. eigenvalues --   32.96041  32.98025  43.99073  44.00945  44.01826
          Condensed to atoms (all electrons):
 Mulliken charges:
               1
     1  Mn   0.140453
     2  C    0.138800
     3  O   -0.108569
     4  C    0.116842
     5  O   -0.093098
     6  C    0.055470
     7  N   -0.153052
     8  C   -0.153962
     9  C   -0.097680
    10  C    0.029270
    11  H    0.149146
    12  H    0.144190
    13  N   -0.063061
    14  C    0.182764
    15  C    0.146164
    16  C   -0.172434
    17  C   -0.132886
    18  C   -0.165942
    19  H    0.136915
    20  H    0.140384
    21  N   -0.149224
    22  C   -0.162106
    23  C   -0.089394
    24  H    0.145293
    25  C    0.123209
    26  H    0.101060
    27  C    0.087429
    28  H    0.133872
    29  H    0.142373
    30  O   -0.110414
    31  S   -0.058532
    32  S   -0.010808
    33  C    0.009103
    34  C    0.149076
    35  C   -0.200218
    36  C   -0.111436
    37  C   -0.145858
    38  C    0.058951
    39  C   -0.134053
    40  H    0.136448
    41  H    0.142084
    42  H    0.126792
    43  C   -0.129821
    44  C    0.053653
    45  C   -0.143416
    46  C   -0.113086
    47  C   -0.195104
    48  C    0.148806
    49  H    0.127143
    50  H    0.141970
    51  H    0.134404
    52  C   -0.001161
    53  H    0.145350
    54  C    0.032347
    55  H    0.132988
    56  H    0.127385
    57  C   -0.079870
    58  C   -0.129109
    59  H    0.142385
    60  H    0.145209
    61  Br  -0.963432
 Sum of Mulliken charges =  -0.00000
 Mulliken charges with hydrogens summed into heavy atoms:
               1
     1  Mn   0.140453
     2  C    0.138800
     3  O   -0.108569
     4  C    0.116842
     5  O   -0.093098
     6  C    0.055470
     7  N   -0.153052
     8  C   -0.004815
     9  C    0.046510
    10  C    0.156655
    13  N   -0.063061
    14  C    0.182764
    15  C    0.146164
    16  C   -0.035520
    17  C    0.009486
    18  C   -0.025558
    21  N   -0.149224
    22  C   -0.016813
    23  C    0.055955
    25  C    0.224269
    27  C    0.221301
    30  O   -0.110414
    31  S   -0.058532
    32  S   -0.010808
    33  C    0.009103
    34  C    0.149076
    35  C   -0.063769
    36  C    0.030648
    37  C   -0.019067
    38  C    0.058951
    39  C   -0.134053
    43  C   -0.129821
    44  C    0.053653
    45  C   -0.016274
    46  C    0.028885
    47  C   -0.060700
    48  C    0.148806
    52  C   -0.001161
    54  C    0.165334
    57  C    0.065339
    58  C    0.013276
    61  Br  -0.963432
 Electronic spatial extent (au):  <R**2>=          27992.3011
 Charge=             -0.0000 electrons
 Dipole moment (field-independent basis, Debye):
    X=             17.0385    Y=            -13.3987    Z=             -4.4732  Tot=             22.1324
 Quadrupole moment (field-independent basis, Debye-Ang):
   XX=           -308.1653   YY=           -253.9360   ZZ=           -270.0893
   XY=             65.0539   XZ=             27.3246   YZ=              6.6220
 Traceless Quadrupole moment (field-independent basis, Debye-Ang):
   XX=            -30.7684   YY=             23.4609   ZZ=              7.3075
   XY=             65.0539   XZ=             27.3246   YZ=              6.6220
 Octapole moment (field-independent basis, Debye-Ang**2):
  XXX=            268.2508  YYY=            -24.2399  ZZZ=            -17.8759  XYY=            214.8013
  XXY=           -390.9946  XXZ=            -54.0700  XZZ=           -149.4098  YZZ=             -7.8099
  YYZ=            -19.4753  XYZ=            -26.4466
 Hexadecapole moment (field-independent basis, Debye-Ang**3):
 XXXX=         -24016.1174 YYYY=          -7098.9734 ZZZZ=          -4456.2869 XXXY=           1779.0670
 XXXZ=            892.0732 YYYX=            162.9416 YYYZ=             45.0147 ZZZX=            318.1584
 ZZZY=             65.9381 XXYY=          -5482.5695 XXZZ=          -4690.8827 YYZZ=          -2070.2392
 XXYZ=            165.8546 YYXZ=             92.3090 ZZXY=             11.7443
 N-N= 6.435178034968D+03 E-N=-2.742540469831D+04  KE= 6.127348179991D+03
 1\1\GINC-C411-011\SP\RwB97XD\Gen\C32H19Br1Mn1N3O3S2\DMCINTOS\22-Mar-20
 23\0\\# wB97XD Gen SCRF=(Solvent=TetraHydroFuran)\\Anth Prod Calculati
 on\\0,1\Mn,0,-1.22873,-0.51376,1.82181\C,0,-1.87759,-1.93431,2.77371\O
 ,0,-2.27815,-2.82438,3.36724\C,0,-2.27341,0.67254,2.75663\O,0,-2.90669
 ,1.40841,3.35475\C,0,0.09709,-0.29428,3.05038\N,0,-0.50983,1.1109,0.61
 148\C,0,-0.93937,2.87293,-0.95517\C,0,0.42123,3.13751,-1.07546\C,0,0.7
 9093,1.40647,0.526\H,0,-1.6832,3.44523,-1.51005\H,0,0.78468,3.91836,-1
 .74692\N,0,-2.68011,-0.75005,0.43807\C,0,-3.51757,-0.89079,-0.34321\C,
 0,-4.5143,-1.11413,-1.34481\C,0,-4.14851,-1.03609,-2.69674\C,0,-5.1121
 4,-1.26288,-3.67314\C,0,-5.83077,-1.41572,-0.96765\H,0,-3.12059,-0.795
 1,-2.97178\H,0,-6.10049,-1.46143,0.08793\N,0,-0.04477,-1.87635,0.63579
 \C,0,0.0939,-3.68877,-0.92981\C,0,1.47634,-3.54625,-1.01561\H,0,-0.432
 84,-4.45033,-1.50502\C,0,-1.36482,1.85333,-0.11419\H,0,-2.43433,1.6518
 7,-0.0123\C,0,-0.6254,-2.83423,-0.10728\H,0,-1.7086,-2.92369,-0.03664\
 H,0,-4.83927,-1.20037,-4.72774\O,0,0.91165,-0.15653,3.84261\S,0,3.0346
 5,0.09353,-1.51071\S,0,6.1853,0.5901,-1.38361\C,0,1.31793,2.38465,-0.3
 1688\C,0,2.79057,2.60199,-0.35714\C,0,3.31898,3.8282,0.06073\C,0,4.694
 54,4.04337,0.08247\C,0,5.56653,3.03217,-0.30999\C,0,5.05601,1.81698,-0
 .77236\C,0,3.67177,1.59852,-0.80359\H,0,2.6368,4.61269,0.39483\H,0,5.0
 9174,5.00015,0.4256\H,0,6.64682,3.1847,-0.26981\C,0,4.09838,-1.11588,-
 0.75273\C,0,5.48251,-0.89797,-0.71723\C,0,6.33596,-1.87988,-0.20832\C,
 0,5.81268,-3.09415,0.22618\C,0,4.43775,-3.31387,0.19722\C,0,3.5647,-2.
 32513,-0.26786\H,0,7.41054,-1.69212,-0.16492\H,0,6.48114,-3.86849,0.60
 621\H,0,4.02585,-4.25749,0.56101\C,0,2.09511,-2.56383,-0.24463\H,0,2.0
 6687,-4.18566,-1.67497\C,0,1.28662,-1.78194,0.58182\H,0,1.76511,-1.051
 55,1.23188\H,0,1.47486,0.85241,1.1666\C,0,-6.4238,-1.56478,-3.30342\C,
 0,-6.78157,-1.64169,-1.95614\H,0,-7.80991,-1.87259,-1.67397\H,0,-7.177
 1,-1.73908,-4.07424\Br,0,-5.05864,2.44612,-0.05105\\Version=ES64L-G16R
 evA.03\State=1-A\HF=-6142.5938608\RMSD=3.975e-09\Dipole=6.7034496,-5.2
 714475,-1.7599099\Quadrupole=-22.8755775,17.4426013,5.4329762,48.36596
 44,20.3151903,4.9232645\PG=C01 [X(C32H19Br1Mn1N3O3S2)]\\@


 DESK:  A WASTEBASKET WITH DRAWERS.
 Job cpu time:       7 days  9 hours 28 minutes 54.4 seconds.
 Elapsed time:       0 days 14 hours 55 minutes 21.9 seconds.
 File lengths (MBytes):  RWF=   1813 Int=      0 D2E=      0 Chk=    159 Scr=      1
 Normal termination of Gaussian 16 at Wed Mar 22 12:00:51 2023.
