 Entering Gaussian System, Link 0=g16
 Initial command:
 /home1/apps/gaussian/16rA.03/g16/l1.exe "/tmp/Gau-156408.inp" -scrdir="/tmp/"
 Entering Link 1 = /home1/apps/gaussian/16rA.03/g16/l1.exe PID=    156410.
  
 Copyright (c) 1988,1990,1992,1993,1995,1998,2003,2009,2016,
            Gaussian, Inc.  All Rights Reserved.
  
 This is part of the Gaussian(R) 16 program.  It is based on
 the Gaussian(R) 09 system (copyright 2009, Gaussian, Inc.),
 the Gaussian(R) 03 system (copyright 2003, Gaussian, Inc.),
 the Gaussian(R) 98 system (copyright 1998, Gaussian, Inc.),
 the Gaussian(R) 94 system (copyright 1995, Gaussian, Inc.),
 the Gaussian 92(TM) system (copyright 1992, Gaussian, Inc.),
 the Gaussian 90(TM) system (copyright 1990, Gaussian, Inc.),
 the Gaussian 88(TM) system (copyright 1988, Gaussian, Inc.),
 the Gaussian 86(TM) system (copyright 1986, Carnegie Mellon
 University), and the Gaussian 82(TM) system (copyright 1983,
 Carnegie Mellon University). Gaussian is a federally registered
 trademark of Gaussian, Inc.
  
 This software contains proprietary and confidential information,
 including trade secrets, belonging to Gaussian, Inc.
  
 This software is provided under written license and may be
 used, copied, transmitted, or stored only in accord with that
 written license.
  
 The following legend is applicable only to US Government
 contracts under FAR:
  
                    RESTRICTED RIGHTS LEGEND
  
 Use, reproduction and disclosure by the US Government is
 subject to restrictions as set forth in subparagraphs (a)
 and (c) of the Commercial Computer Software - Restricted
 Rights clause in FAR 52.227-19.
  
 Gaussian, Inc.
 340 Quinnipiac St., Bldg. 40, Wallingford CT 06492
  
  
 ---------------------------------------------------------------
 Warning -- This program may not be used in any manner that
 competes with the business of Gaussian, Inc. or will provide
 assistance to any competitor of Gaussian, Inc.  The licensee
 of this program is prohibited from giving any competitor of
 Gaussian, Inc. access to this program.  By using this program,
 the user acknowledges that Gaussian, Inc. is engaged in the
 business of creating and licensing software in the field of
 computational chemistry and represents and warrants to the
 licensee that it is not a competitor of Gaussian, Inc. and that
 it will not use this program in any manner prohibited above.
 ---------------------------------------------------------------
  

 Cite this work as:
 Gaussian 16, Revision A.03,
 M. J. Frisch, G. W. Trucks, H. B. Schlegel, G. E. Scuseria, 
 M. A. Robb, J. R. Cheeseman, G. Scalmani, V. Barone, 
 G. A. Petersson, H. Nakatsuji, X. Li, M. Caricato, A. V. Marenich, 
 J. Bloino, B. G. Janesko, R. Gomperts, B. Mennucci, H. P. Hratchian, 
 J. V. Ortiz, A. F. Izmaylov, J. L. Sonnenberg, D. Williams-Young, 
 F. Ding, F. Lipparini, F. Egidi, J. Goings, B. Peng, A. Petrone, 
 T. Henderson, D. Ranasinghe, V. G. Zakrzewski, J. Gao, N. Rega, 
 G. Zheng, W. Liang, M. Hada, M. Ehara, K. Toyota, R. Fukuda, 
 J. Hasegawa, M. Ishida, T. Nakajima, Y. Honda, O. Kitao, H. Nakai, 
 T. Vreven, K. Throssell, J. A. Montgomery, Jr., J. E. Peralta, 
 F. Ogliaro, M. J. Bearpark, J. J. Heyd, E. N. Brothers, K. N. Kudin, 
 V. N. Staroverov, T. A. Keith, R. Kobayashi, J. Normand, 
 K. Raghavachari, A. P. Rendell, J. C. Burant, S. S. Iyengar, 
 J. Tomasi, M. Cossi, J. M. Millam, M. Klene, C. Adamo, R. Cammi, 
 J. W. Ochterski, R. L. Martin, K. Morokuma, O. Farkas, 
 J. B. Foresman, and D. J. Fox, Gaussian, Inc., Wallingford CT, 2016.
 
 ******************************************
 Gaussian 16:  ES64L-G16RevA.03 25-Dec-2016
                12-Feb-2023 
 ******************************************
 %Chk=checkpoint.chk
 %NProcShared=12
 Will use up to   12 processors via shared memory.
 ------------------------------------------------------
 # wB97XD Gen Opt=(QST3) SCRF=(Solvent=TetraHydroFuran)
 ------------------------------------------------------
 1/5=1,18=20,26=3,27=203,38=1/1,3;
 2/9=110,12=2,17=6,18=5,40=1/2;
 3/5=7,11=2,25=1,30=1,70=2201,71=1,72=20,74=-58/1,2,3;
 4//1;
 5/5=2,38=5,53=20/2;
 6/7=2,8=2,9=2,10=2,28=1/1;
 7//1,2,3,16;
 1/5=1,18=20,26=3,27=203/3(2);
 2/9=110/2;
 99//99;
 2/9=110/2;
 3/5=7,6=1,11=2,25=1,30=1,70=2205,71=1,72=20,74=-58,82=7/1,2,3;
 4/5=5,16=3,69=1/1;
 5/5=2,38=5,53=20/2;
 7//1,2,3,16;
 1/5=1,18=20,26=3,27=203/3(-5);
 2/9=110/2;
 6/7=2,8=2,9=2,10=2,19=2,28=1/1;
 99/9=1/99;
 ------------------------------------
 Anthracene Transition State Reactant
 ------------------------------------
 Symbolic Z-matrix:
 Charge =  0 Multiplicity = 1
 Mn                   -1.0194   -0.13282  -1.30041 
 C                    -1.95084   1.09527  -2.29845 
 O                    -2.50101   1.87539  -2.92239 
 C                    -1.94096  -1.55093  -2.01671 
 O                    -2.47772  -2.45176  -2.46467 
 C                     0.20025  -0.27236  -2.6431 
 N                     0.04927  -1.53221  -0.03083 
 C                     0.07866  -3.04556   1.8282 
 C                     1.46702  -3.1228    1.77993 
 C                     1.37634  -1.67638  -0.11513 
 H                    -0.49205  -3.5931    2.57846 
 H                     2.01871  -3.71611   2.51212 
 N                    -2.37065   0.02942   0.19031 
 C                    -3.16697   0.13023   1.0198 
 C                    -4.10539   0.2658    2.09209 
 C                    -3.6202    0.43566   3.39952 
 C                    -4.52704   0.57079   4.44399 
 C                    -5.48203   0.23058   1.82486 
 H                    -2.54534   0.46071   3.58681 
 H                    -5.82775   0.09615   0.79488 
 N                     0.05018   1.50245  -0.35369 
 C                     0.08073   3.37421   1.14383 
 C                     1.47006   3.42805   1.09346 
 H                    -0.49002   4.07266   1.75603 
 C                    -0.58809  -2.23239   0.92237 
 H                    -1.67251  -2.14107   0.96102 
 C                    -0.58735   2.39419   0.42298 
 H                    -1.67305   2.32336   0.46813 
 H                    -4.16287   0.70328   5.46409 
 O                     0.94147  -0.36186  -3.51126 
 C                     3.71034   0.05692   0.59661 
 C                     6.44285   0.00195   0.07986 
 C                     2.14993  -2.41932   0.78562 
 C                     3.63318  -2.42875   0.67238 
 C                     4.33237  -3.60918   0.65808 
 C                     5.74721  -3.62943   0.48325 
 C                     6.44286  -2.47015   0.28898 
 C                     5.76733  -1.20725   0.29051 
 C                     4.35206  -1.18133   0.52939 
 H                     3.79554  -4.55679   0.74485 
 H                     6.26618  -4.58974   0.47691 
 H                     7.52231  -2.48926   0.12265 
 C                     4.35394   1.25516   0.28141 
 C                     5.76945   1.23001   0.04342 
 C                     6.44775   2.46555  -0.21061 
 C                     5.75436   3.64152  -0.25402 
 C                     4.33929   3.65908  -0.08147 
 C                     3.63726   2.50702   0.16895 
 H                     7.52743   2.44868  -0.37582 
 H                     6.27529   4.58008  -0.45221 
 H                     3.80437   4.6056   -0.18931 
 C                     2.15352   2.52607   0.2752 
 H                     2.02229   4.15802   1.68899 
 C                     1.37923   1.61496  -0.45427 
 H                     1.87683   0.94259  -1.1522 
 H                     1.87309  -1.17143  -0.94303 
 C                    -5.89955   0.53687   4.18594 
 C                    -6.37363   0.36773   2.88435 
 H                    -7.44706   0.34214   2.68994 
 H                    -6.60706   0.64379   5.01079 
 Br                   -5.87537  -0.28615  -1.89241 
 H                     7.52454  -0.01473  -0.07653 
 H                     2.66679   0.08836   0.89635 
 
 Add virtual bond connecting atoms Br61       and H20        Dist= 5.13D+00.
 -----------------------------------
 Anthracene Transition State Product
 -----------------------------------
 Symbolic Z-matrix:
 Charge =  0 Multiplicity = 1
 Mn                   -1.44286   0.16026  -2.01412 
 C                    -2.20443   1.54882  -2.90891 
 O                    -2.68366   2.42731  -3.46349 
 C                    -2.21304  -1.07612  -3.10367 
 O                    -2.69804  -1.85971  -3.78172 
 C                    -0.01408   0.23546  -3.09485 
 N                    -0.60049  -1.44099  -0.81185 
 C                    -0.82342  -3.27125   0.71581 
 C                     0.55737  -3.36677   0.85296 
 C                     0.7252   -1.5913   -0.72767 
 H                    -1.48955  -3.94449   1.25661 
 H                     1.00241  -4.09964   1.52935 
 N                     0.0775   -0.17244   2.4041 
 C                    -1.05369  -0.19765   2.64732 
 C                    -2.45976  -0.23136   2.94445 
 C                    -3.12645  -1.4621    3.01383 
 C                    -4.49389  -1.48788   3.26678 
 C                    -3.15853   0.96659   3.1448 
 H                    -2.5722   -2.38909   2.86463 
 H                    -2.62937   1.91849   3.09601 
 N                    -0.59083   1.56154  -0.58857 
 C                    -0.80429   3.1413    1.19825 
 C                     0.5769    3.20654   1.34817 
 H                    -1.46646   3.7285    1.83564 
 C                    -1.3638   -2.28301  -0.09733 
 H                    -2.44255  -2.14076  -0.17604 
 C                    -1.34964   2.291     0.24463 
 H                    -2.42913   2.16919   0.14486 
 H                    -5.01736  -2.44419   3.31559 
 O                     0.86165   0.2873   -3.83871 
 C                     2.91235  -0.04746   0.58557 
 C                     5.69235  -0.04273   0.41158 
 C                     1.36924  -2.49754   0.12252 
 C                     2.85402  -2.5063    0.21569 
 C                     3.56205  -3.67493   0.08887 
 C                     4.98786  -3.68132   0.09599 
 C                     5.69088  -2.51399   0.19056 
 C                     5.00769  -1.26191   0.32192 
 C                     3.57322  -1.26107   0.38259 
 H                     3.02896  -4.61681  -0.06081 
 H                     5.51371  -4.63251  -0.00729 
 H                     6.783    -2.51728   0.16154 
 C                     3.58071   1.17889   0.56648 
 C                     5.01522   1.18024   0.5065 
 C                     5.70587   2.43375   0.56536 
 C                     5.00976   3.60611   0.64834 
 C                     3.58394   3.60941   0.64 
 C                     2.86897   2.43926   0.58848 
 H                     6.79801   2.43509   0.53708 
 H                     5.54131   4.55882   0.69009 
 H                     3.05653   4.56629   0.63458 
 C                     1.38429   2.45343   0.49431 
 H                     1.02578   3.82526   2.12808 
 C                     0.73572   1.68987  -0.48314 
 H                     1.34033   1.15471  -1.214 
 H                     1.33286  -0.9558   -1.37019 
 C                    -5.19354  -0.29487   3.45284 
 C                    -4.52569   0.92909   3.39758 
 H                    -5.07398   1.86057   3.54798 
 H                    -6.26798  -0.31941   3.64516 
 Br                   -3.72263   0.07153  -0.71897 
 H                     1.84487  -0.05936   0.78995 
 H                     6.78538  -0.04496   0.39399 
 
 Add virtual bond connecting atoms N7         and Mn1        Dist= 4.11D+00.
 Add virtual bond connecting atoms N21        and Mn1        Dist= 4.11D+00.
 Add virtual bond connecting atoms H11        and H19        Dist= 4.70D+00.
 Add virtual bond connecting atoms H24        and H20        Dist= 4.71D+00.
 Add virtual bond connecting atoms H62        and N13        Dist= 4.53D+00.
 ----------------------------------------
 Anthracene Transition State Inital Guess
 ----------------------------------------
 Symbolic Z-matrix:
 Charge =  0 Multiplicity = 1
 Mn                   -1.14628  -0.03668  -1.535 
 C                    -1.85351   1.29185  -2.59897 
 O                    -2.0465    2.19632  -3.2766 
 C                    -1.93502  -1.52587  -2.28825 
 O                    -2.1862   -2.54309  -2.75348 
 C                     0.09461  -0.20607  -2.80692 
 N                    -0.13121  -1.55361  -0.22584 
 C                    -0.22655  -3.10065   1.60218 
 C                     1.1621   -3.12597   1.686 
 C                     1.2      -1.65735  -0.1955 
 H                    -0.84562  -3.6823    2.2876 
 H                     1.66312  -3.70846   2.46371 
 N                    -2.26246   0.17084   0.21579 
 C                    -2.89407   0.21629   1.17863 
 C                    -3.764     0.2238    2.31925 
 C                    -3.23492   0.35585   3.61066 
 C                    -4.09866   0.33893   4.70084 
 C                    -5.14343   0.07516   2.11252 
 H                    -2.15745   0.46816   3.74992 
 H                    -5.52841  -0.02966   1.09495 
 N                    -0.05088   1.64613  -0.5998 
 C                    -0.03204   3.5963    0.79077 
 C                     1.35896   3.583     0.83271 
 H                    -0.6063    4.35492   1.32541 
 C                    -0.83043  -2.29815   0.64391 
 H                    -1.91844  -2.24596   0.57388 
 C                    -0.69619   2.60598   0.08018 
 H                    -1.78709   2.57755   0.05471 
 H                    -3.69735   0.44035   5.71178 
 O                     0.85681  -0.31103  -3.66604 
 C                     3.52301   0.08922   0.6011 
 C                     6.28923  -0.02743   0.31321 
 C                     1.9116   -2.39331   0.76204 
 C                     3.40167  -2.39809   0.77086 
 C                     4.08751  -3.58269   0.86231 
 C                     5.51288  -3.62592   0.81102 
 C                     6.23675  -2.48411   0.62893 
 C                     5.57705  -1.21537   0.51962 
 C                     4.14714  -1.16117   0.63759 
 H                     3.53405  -4.52241   0.93986 
 H                     6.01704  -4.59218   0.89063 
 H                     7.32722  -2.51702   0.55678 
 C                     4.21456   1.26698   0.30157 
 C                     5.64341   1.20741   0.1738 
 C                     6.37046   2.41691  -0.08138 
 C                     5.71117   3.60253  -0.22515 
 C                     4.28718   3.65696  -0.14985 
 C                     3.53906   2.53403   0.096 
 H                     7.45934   2.36648  -0.16593 
 H                     6.26668   4.52177  -0.42627 
 H                     3.78477   4.61183  -0.32687 
 C                     2.05103   2.60883   0.10918 
 H                     1.90569   4.32018   1.4264 
 C                     1.28338   1.69554  -0.62459 
 H                     1.78704   0.96909  -1.26338 
 H                     1.74869  -1.12973  -0.97662 
 C                    -5.47256   0.19079   4.50219 
 C                    -5.99375   0.0599    3.21346 
 H                    -7.06964  -0.05743   3.06536 
 H                    -6.14515   0.17625   5.36365 
 Br                   -4.1394   -0.00532  -2.0446 
 H                     7.38011  -0.06761   0.24345 
 H                     2.45654   0.14592   0.8054 
 

 GradGradGradGradGradGradGradGradGradGradGradGradGradGradGradGradGradGrad
 Berny optimization.
 Initialization pass.
                           ----------------------------
                           !    Initial Parameters    !
                           ! (Angstroms and Degrees)  !
 --------------------------                            --------------------------
 ! Name  Definition         TS        Reactant Product Derivative Info.         !
 --------------------------------------------------------------------------------
 ! R1    R(1,2)             1.8432    1.8363    1.819  estimate D2E/DX2         !
 ! R2    R(1,4)             1.8459    1.8367    1.819  estimate D2E/DX2         !
 ! R3    R(1,6)             1.785     1.8193    1.7931 estimate D2E/DX2         !
 ! R4    R(1,7)             2.2462    2.1708    2.1723 estimate D2E/DX2         !
 ! R5    R(1,13)            2.0867    2.0185    4.6843 estimate D2E/DX2         !
 ! R6    R(1,21)            2.215     2.1713    2.173  estimate D2E/DX2         !
 ! R7    R(1,61)            3.0364    4.8943    2.6235 estimate D2E/DX2         !
 ! R8    R(2,3)             1.1465    1.1404    1.1441 estimate D2E/DX2         !
 ! R9    R(4,5)             1.1464    1.1403    1.1441 estimate D2E/DX2         !
 ! R10   R(6,30)            1.1533    1.145     1.1502 estimate D2E/DX2         !
 ! R11   R(7,10)            1.3356    1.3375    1.3368 estimate D2E/DX2         !
 ! R12   R(7,25)            1.3415    1.3435    1.3425 estimate D2E/DX2         !
 ! R13   R(8,9)             1.3914    1.3913    1.3909 estimate D2E/DX2         !
 ! R14   R(8,11)            1.0915    1.0901    1.0906 estimate D2E/DX2         !
 ! R15   R(8,25)            1.3882    1.3879    1.3892 estimate D2E/DX2         !
 ! R16   R(9,12)            1.0932    1.092     1.0921 estimate D2E/DX2         !
 ! R17   R(9,33)            1.3972    1.3964    1.3958 estimate D2E/DX2         !
 ! R18   R(10,33)           1.4018    1.4006    1.3996 estimate D2E/DX2         !
 ! R19   R(10,56)           1.0907    1.0896    1.089  estimate D2E/DX2         !
 ! R20   R(11,19)           4.5919    4.6547    2.4854 estimate D2E/DX2         !
 ! R21   R(13,14)           1.1524    1.1543    1.1573 estimate D2E/DX2         !
 ! R22   R(13,62)           9.6456    9.8989    2.3962 estimate D2E/DX2         !
 ! R23   R(14,15)           1.4345    1.4314    1.4375 estimate D2E/DX2         !
 ! R24   R(15,16)           1.4018    1.4049    1.4014 estimate D2E/DX2         !
 ! R25   R(15,18)           1.4027    1.4028    1.4013 estimate D2E/DX2         !
 ! R26   R(16,17)           1.391     1.3898    1.3909 estimate D2E/DX2         !
 ! R27   R(16,19)           1.0922    1.0913    1.0903 estimate D2E/DX2         !
 ! R28   R(17,29)           1.0924    1.0912    1.0913 estimate D2E/DX2         !
 ! R29   R(17,57)           1.3961    1.397     1.3955 estimate D2E/DX2         !
 ! R30   R(18,20)           1.093     1.0947    1.0902 estimate D2E/DX2         !
 ! R31   R(18,58)           1.3912    1.3915    1.3908 estimate D2E/DX2         !
 ! R32   R(20,24)           6.5958    6.7252    2.4934 estimate D2E/DX2         !
 ! R33   R(20,61)           3.4332    2.7148    4.3773 estimate D2E/DX2         !
 ! R34   R(21,27)           1.3417    1.3435    1.3424 estimate D2E/DX2         !
 ! R35   R(21,54)           1.3354    1.3376    1.3369 estimate D2E/DX2         !
 ! R36   R(22,23)           1.3917    1.3913    1.3908 estimate D2E/DX2         !
 ! R37   R(22,24)           1.0914    1.0901    1.0907 estimate D2E/DX2         !
 ! R38   R(22,27)           1.3881    1.3879    1.3892 estimate D2E/DX2         !
 ! R39   R(23,52)           1.397     1.3965    1.3958 estimate D2E/DX2         !
 ! R40   R(23,53)           1.0931    1.092     1.092  estimate D2E/DX2         !
 ! R41   R(25,26)           1.0915    1.0889    1.0909 estimate D2E/DX2         !
 ! R42   R(27,28)           1.0916    1.0889    1.0909 estimate D2E/DX2         !
 ! R43   R(31,39)           1.398     1.3963    1.3967 estimate D2E/DX2         !
 ! R44   R(31,43)           1.3982    1.3962    1.3968 estimate D2E/DX2         !
 ! R45   R(31,62)           3.8768    3.8738    1.0869 estimate D2E/DX2         !
 ! R46   R(31,63)           1.0873    1.0862    3.8778 estimate D2E/DX2         !
 ! R47   R(32,38)           1.4004    1.401     1.4011 estimate D2E/DX2         !
 ! R48   R(32,44)           1.4005    1.401     1.4011 estimate D2E/DX2         !
 ! R49   R(32,62)           1.0938    1.0931    3.8661 estimate D2E/DX2         !
 ! R50   R(32,63)           3.868     3.8643    1.0932 estimate D2E/DX2         !
 ! R51   R(33,34)           1.4901    1.4876    1.4877 estimate D2E/DX2         !
 ! R52   R(34,35)           1.3719    1.372     1.3723 estimate D2E/DX2         !
 ! R53   R(34,39)           1.4503    1.4468    1.4477 estimate D2E/DX2         !
 ! R54   R(35,36)           1.4269    1.4257    1.4258 estimate D2E/DX2         !
 ! R55   R(35,40)           1.0933    1.0926    1.0926 estimate D2E/DX2         !
 ! R56   R(36,37)           1.3641    1.3659    1.366  estimate D2E/DX2         !
 ! R57   R(36,41)           1.0928    1.0916    1.0918 estimate D2E/DX2         !
 ! R58   R(37,38)           1.4342    1.4322    1.4324 estimate D2E/DX2         !
 ! R59   R(37,42)           1.0933    1.0924    1.0925 estimate D2E/DX2         !
 ! R60   R(38,39)           1.4358    1.4355    1.4358 estimate D2E/DX2         !
 ! R61   R(43,44)           1.4358    1.4356    1.4358 estimate D2E/DX2         !
 ! R62   R(43,48)           1.4505    1.4469    1.4476 estimate D2E/DX2         !
 ! R63   R(44,45)           1.4341    1.4322    1.4324 estimate D2E/DX2         !
 ! R64   R(45,46)           1.3642    1.3659    1.366  estimate D2E/DX2         !
 ! R65   R(45,49)           1.0933    1.0924    1.0925 estimate D2E/DX2         !
 ! R66   R(46,47)           1.427     1.4257    1.4258 estimate D2E/DX2         !
 ! R67   R(46,50)           1.0927    1.0916    1.0918 estimate D2E/DX2         !
 ! R68   R(47,48)           1.3715    1.3722    1.3723 estimate D2E/DX2         !
 ! R69   R(47,51)           1.0934    1.0926    1.0926 estimate D2E/DX2         !
 ! R70   R(48,52)           1.49      1.4877    1.4877 estimate D2E/DX2         !
 ! R71   R(52,54)           1.4006    1.4006    1.3997 estimate D2E/DX2         !
 ! R72   R(54,55)           1.0906    1.0894    1.0891 estimate D2E/DX2         !
 ! R73   R(57,58)           1.3963    1.3955    1.3954 estimate D2E/DX2         !
 ! R74   R(57,60)           1.093     1.092     1.0918 estimate D2E/DX2         !
 ! R75   R(58,59)           1.0924    1.0912    1.0913 estimate D2E/DX2         !
 ! A1    A(2,1,4)         100.4859   92.8602   92.6906 estimate D2E/DX2         !
 ! A2    A(2,1,6)          85.6306   89.4398   90.2928 estimate D2E/DX2         !
 ! A3    L(2,1,7,4,-1)    183.9459  181.5632  182.3854 estimate D2E/DX2         !
 ! A4    L(2,1,7,4,-2)    177.402   182.4131  183.4865 estimate D2E/DX2         !
 ! A5    A(2,1,13)        101.9703   90.4629  130.8496 estimate D2E/DX2         !
 ! A6    A(2,1,21)         83.4464   89.035    89.6911 estimate D2E/DX2         !
 ! A7    A(2,1,61)         61.1466   56.7659   84.5395 estimate D2E/DX2         !
 ! A8    A(4,1,6)          85.9695   89.3883   90.279  estimate D2E/DX2         !
 ! A9    A(4,1,7)          83.46     88.703    89.6949 estimate D2E/DX2         !
 ! A10   A(4,1,13)        101.1895   90.8132  130.8505 estimate D2E/DX2         !
 ! A11   L(4,1,21,2,-1)   183.9322  181.8953  182.3816 estimate D2E/DX2         !
 ! A12   L(4,1,21,2,-2)   182.7339  177.8035  176.5025 estimate D2E/DX2         !
 ! A13   A(4,1,61)         61.2245   55.3068   84.5361 estimate D2E/DX2         !
 ! A14   A(6,1,7)          92.1243   92.9897   93.1816 estimate D2E/DX2         !
 ! A15   L(6,1,13,2,-1)   187.6009  179.9027  221.1424 estimate D2E/DX2         !
 ! A16   L(6,1,13,2,-2)   189.0204  180.197   245.2912 estimate D2E/DX2         !
 ! A17   A(6,1,21)         91.6708   92.827    93.2059 estimate D2E/DX2         !
 ! A18   L(6,1,61,2,-1)   146.7772  146.2057  174.8323 estimate D2E/DX2         !
 ! A19   L(6,1,61,2,-2)   133.7062  133.7926  174.5395 estimate D2E/DX2         !
 ! A20   A(7,1,13)         79.6228   87.1023   45.5557 estimate D2E/DX2         !
 ! A21   A(7,1,21)         92.4938   89.3121   87.7196 estimate D2E/DX2         !
 ! A22   A(7,1,61)        123.3854  122.615    92.2245 estimate D2E/DX2         !
 ! A23   A(13,1,21)        80.4871   86.9744   45.554  estimate D2E/DX2         !
 ! A24   A(21,1,61)       123.4015  124.4079   92.2164 estimate D2E/DX2         !
 ! A25   L(1,2,3,18,-1)   189.4853  181.2299  179.5621 estimate D2E/DX2         !
 ! A26   L(1,2,3,22,-1)   173.4877  179.0518  179.5279 estimate D2E/DX2         !
 ! A27   L(1,2,3,18,-2)   169.9027  178.8291  179.7608 estimate D2E/DX2         !
 ! A28   L(1,2,3,22,-2)   168.5907  178.5473  180.1171 estimate D2E/DX2         !
 ! A29   L(1,4,5,8,-1)    173.6842  178.9781  179.5473 estimate D2E/DX2         !
 ! A30   L(1,4,5,8,-2)    191.3405  181.8662  179.8672 estimate D2E/DX2         !
 ! A31   L(1,6,30,10,-1)  182.4317  181.4747  182.6714 estimate D2E/DX2         !
 ! A32   L(1,6,30,10,-2)  178.7354  178.99    178.0594 estimate D2E/DX2         !
 ! A33   A(1,7,10)        121.0725  121.4044  120.1501 estimate D2E/DX2         !
 ! A34   A(1,7,25)        121.1406  121.1552  122.4403 estimate D2E/DX2         !
 ! A35   A(10,7,25)       117.4942  117.3369  117.3751 estimate D2E/DX2         !
 ! A36   A(9,8,11)        121.2334  121.2244  121.0019 estimate D2E/DX2         !
 ! A37   A(9,8,25)        119.0954  119.2911  119.5213 estimate D2E/DX2         !
 ! A38   A(11,8,25)       119.6588  119.4687  119.4588 estimate D2E/DX2         !
 ! A39   A(8,9,12)        120.6595  120.7321  120.7784 estimate D2E/DX2         !
 ! A40   A(8,9,33)        119.077   118.9955  118.8861 estimate D2E/DX2         !
 ! A41   A(12,9,33)       120.2634  120.2701  120.331  estimate D2E/DX2         !
 ! A42   A(7,10,33)       124.214   124.3771  124.5675 estimate D2E/DX2         !
 ! A43   A(7,10,56)       116.5886  116.7619  116.7806 estimate D2E/DX2         !
 ! A44   A(33,10,56)      119.1972  118.8603  118.6518 estimate D2E/DX2         !
 ! A45   A(8,11,19)        83.128    86.7094  101.5699 estimate D2E/DX2         !
 ! A46   L(1,13,14,8,-1)  177.6948  181.4217  143.4264 estimate D2E/DX2         !
 ! A47   L(1,13,14,8,-2)  182.671   180.9146  272.8095 estimate D2E/DX2         !
 ! A48   A(14,13,62)      123.1263  135.1856  149.7131 estimate D2E/DX2         !
 ! A49   L(13,14,15,11,-1)  180.3916  178.6485  179.8378 estimate D2E/DX2       !
 ! A50   L(13,14,15,1,-1)  176.098  179.3423  179.8053 estimate D2E/DX2         !
 ! A51   L(13,14,15,11,-2)  184.512  177.655  180.1544 estimate D2E/DX2         !
 ! A52   L(13,14,15,1,-2)  215.3107  323.0409  179.8888 estimate D2E/DX2        !
 ! A53   A(14,15,16)      120.2726  118.8297  119.745  estimate D2E/DX2         !
 ! A54   A(14,15,18)      118.5949  119.8879  119.8197 estimate D2E/DX2         !
 ! A55   A(16,15,18)      121.1246  121.2822  120.4296 estimate D2E/DX2         !
 ! A56   A(15,16,17)      119.1116  119.0657  119.537  estimate D2E/DX2         !
 ! A57   A(15,16,19)      119.9647  120.1746  119.8713 estimate D2E/DX2         !
 ! A58   A(17,16,19)      120.9236  120.7597  120.591  estimate D2E/DX2         !
 ! A59   A(16,17,29)      119.7394  119.7748  119.7337 estimate D2E/DX2         !
 ! A60   A(16,17,57)      120.0574  119.9927  120.0872 estimate D2E/DX2         !
 ! A61   A(29,17,57)      120.2032  120.2326  120.1787 estimate D2E/DX2         !
 ! A62   A(15,18,20)      119.5865  119.4873  119.8693 estimate D2E/DX2         !
 ! A63   A(15,18,58)      119.052   118.7694  119.546  estimate D2E/DX2         !
 ! A64   A(20,18,58)      121.3611  121.7433  120.5838 estimate D2E/DX2         !
 ! A65   A(11,19,16)       98.5269  112.1661  147.3575 estimate D2E/DX2         !
 ! A66   A(18,20,24)       68.9537   62.7598  151.9875 estimate D2E/DX2         !
 ! A67   A(18,20,61)      135.0874  162.5838   63.2149 estimate D2E/DX2         !
 ! A68   A(1,21,27)       121.308   121.2128  122.409  estimate D2E/DX2         !
 ! A69   A(1,21,54)       120.9561  121.3339  120.1792 estimate D2E/DX2         !
 ! A70   A(27,21,54)      117.6128  117.3326  117.3719 estimate D2E/DX2         !
 ! A71   A(23,22,24)      121.1844  121.2226  120.9754 estimate D2E/DX2         !
 ! A72   A(23,22,27)      119.1323  119.2873  119.5087 estimate D2E/DX2         !
 ! A73   A(24,22,27)      119.666   119.4755  119.497  estimate D2E/DX2         !
 ! A74   A(22,23,52)      119.0928  119.0084  118.8945 estimate D2E/DX2         !
 ! A75   A(22,23,53)      120.6535  120.7383  120.7806 estimate D2E/DX2         !
 ! A76   A(52,23,53)      120.253   120.2517  120.3201 estimate D2E/DX2         !
 ! A77   A(20,24,22)       85.0359   87.5038  100.821  estimate D2E/DX2         !
 ! A78   A(7,25,8)        122.7972  122.7164  122.4501 estimate D2E/DX2         !
 ! A79   A(7,25,26)       116.8336  116.9941  116.2352 estimate D2E/DX2         !
 ! A80   A(8,25,26)       120.3685  120.2893  121.3081 estimate D2E/DX2         !
 ! A81   A(21,27,22)      122.6653  122.7187  122.4637 estimate D2E/DX2         !
 ! A82   A(21,27,28)      116.7575  116.996   116.2248 estimate D2E/DX2         !
 ! A83   A(22,27,28)      120.5771  120.2851  121.3045 estimate D2E/DX2         !
 ! A84   A(39,31,43)      122.5596  122.5723  122.3093 estimate D2E/DX2         !
 ! A85   A(39,31,62)       61.4482   61.4914  118.8492 estimate D2E/DX2         !
 ! A86   A(39,31,63)      118.66    118.7182   61.3666 estimate D2E/DX2         !
 ! A87   A(43,31,62)       61.461    61.4953  118.8238 estimate D2E/DX2         !
 ! A88   A(43,31,63)      118.7783  118.7067   61.3697 estimate D2E/DX2         !
 ! A89   A(38,32,44)      121.879   121.9166  121.8486 estimate D2E/DX2         !
 ! A90   A(38,32,62)      119.0413  119.0443   61.0678 estimate D2E/DX2         !
 ! A91   A(38,32,63)       61.0096   61.0778  119.0633 estimate D2E/DX2         !
 ! A92   A(44,32,62)      119.0729  119.0318   61.0645 estimate D2E/DX2         !
 ! A93   A(44,32,63)       61.068    61.068   119.0833 estimate D2E/DX2         !
 ! A94   A(9,33,10)       117.0466  117.0675  116.9662 estimate D2E/DX2         !
 ! A95   A(9,33,34)       122.061   122.5908  122.9607 estimate D2E/DX2         !
 ! A96   A(10,33,34)      120.888   120.3387  120.073  estimate D2E/DX2         !
 ! A97   A(33,34,35)      120.2037  120.9546  120.9417 estimate D2E/DX2         !
 ! A98   A(33,34,39)      120.7111  119.8331  119.8661 estimate D2E/DX2         !
 ! A99   A(35,34,39)      119.0521  119.1791  119.1341 estimate D2E/DX2         !
 ! A100  A(34,35,36)      121.5426  121.2786  121.2856 estimate D2E/DX2         !
 ! A101  A(34,35,40)      119.5928  119.6689  119.674  estimate D2E/DX2         !
 ! A102  A(36,35,40)      118.8266  119.0134  118.9947 estimate D2E/DX2         !
 ! A103  A(35,36,37)      120.6305  120.7171  120.7422 estimate D2E/DX2         !
 ! A104  A(35,36,41)      119.0132  119.0123  119.0173 estimate D2E/DX2         !
 ! A105  A(37,36,41)      120.3326  120.2457  120.2125 estimate D2E/DX2         !
 ! A106  A(36,37,38)      120.4345  120.5328  120.5232 estimate D2E/DX2         !
 ! A107  A(36,37,42)      120.8545  120.6705  120.6689 estimate D2E/DX2         !
 ! A108  A(38,37,42)      118.7098  118.7953  118.8069 estimate D2E/DX2         !
 ! A109  A(32,38,37)      121.8536  122.24    122.2362 estimate D2E/DX2         !
 ! A110  A(32,38,39)      119.116   118.9991  119.0121 estimate D2E/DX2         !
 ! A111  A(37,38,39)      119.0278  118.758   118.7457 estimate D2E/DX2         !
 ! A112  A(31,39,34)      122.3943  122.1059  121.9443 estimate D2E/DX2         !
 ! A113  A(31,39,38)      118.4401  118.4984  118.6455 estimate D2E/DX2         !
 ! A114  A(34,39,38)      119.1599  119.389   119.4053 estimate D2E/DX2         !
 ! A115  A(31,43,44)      118.4449  118.4837  118.6513 estimate D2E/DX2         !
 ! A116  A(31,43,48)      122.399   122.1247  121.9344 estimate D2E/DX2         !
 ! A117  A(44,43,48)      119.1487  119.3848  119.4097 estimate D2E/DX2         !
 ! A118  A(32,44,43)      119.1194  119.0099  119.0034 estimate D2E/DX2         !
 ! A119  A(32,44,45)      121.8413  122.2187  122.2494 estimate D2E/DX2         !
 ! A120  A(43,44,45)      119.0369  118.7686  118.7409 estimate D2E/DX2         !
 ! A121  A(44,45,46)      120.4466  120.528   120.5213 estimate D2E/DX2         !
 ! A122  A(44,45,49)      118.6708  118.7904  118.817  estimate D2E/DX2         !
 ! A123  A(46,45,49)      120.8807  120.6802  120.6609 estimate D2E/DX2         !
 ! A124  A(45,46,47)      120.6533  120.7068  120.7457 estimate D2E/DX2         !
 ! A125  A(45,46,50)      120.3203  120.2507  120.209  estimate D2E/DX2         !
 ! A126  A(47,46,50)      119.007   119.0168  119.0169 estimate D2E/DX2         !
 ! A127  A(46,47,48)      121.5025  121.3037  121.2822 estimate D2E/DX2         !
 ! A128  A(46,47,51)      118.9006  118.9924  118.9961 estimate D2E/DX2         !
 ! A129  A(48,47,51)      119.5634  119.663   119.6765 estimate D2E/DX2         !
 ! A130  A(43,48,47)      119.1153  119.1567  119.1323 estimate D2E/DX2         !
 ! A131  A(43,48,52)      120.5104  119.9705  119.8668 estimate D2E/DX2         !
 ! A132  A(47,48,52)      120.347   120.8346  120.9443 estimate D2E/DX2         !
 ! A133  A(23,52,48)      122.3005  122.5636  122.9353 estimate D2E/DX2         !
 ! A134  A(23,52,54)      117.0346  117.0493  116.97   estimate D2E/DX2         !
 ! A135  A(48,52,54)      120.663   120.3865  120.0947 estimate D2E/DX2         !
 ! A136  A(21,54,52)      124.1943  124.391   124.5567 estimate D2E/DX2         !
 ! A137  A(21,54,55)      116.5923  116.7506  116.7927 estimate D2E/DX2         !
 ! A138  A(52,54,55)      119.2135  118.8579  118.6503 estimate D2E/DX2         !
 ! A139  A(17,57,58)      120.5724  120.597   120.3067 estimate D2E/DX2         !
 ! A140  A(17,57,60)      119.659   119.6479  119.8457 estimate D2E/DX2         !
 ! A141  A(58,57,60)      119.7686  119.7552  119.8473 estimate D2E/DX2         !
 ! A142  A(18,58,57)      120.0821  120.2931  120.0864 estimate D2E/DX2         !
 ! A143  A(18,58,59)      119.7286  119.4952  119.7296 estimate D2E/DX2         !
 ! A144  A(57,58,59)      120.1892  120.2117  120.1834 estimate D2E/DX2         !
 ! A145  A(13,62,31)        5.533     8.5014  148.3802 estimate D2E/DX2         !
 ! D1    D(4,1,7,10)      120.4538  118.0929  116.3527 estimate D2E/DX2         !
 ! D2    D(4,1,7,25)      -65.916   -65.7047  -65.8409 estimate D2E/DX2         !
 ! D3    D(6,1,7,10)       34.7578   28.7733   26.0902 estimate D2E/DX2         !
 ! D4    D(6,1,7,25)     -151.612  -155.0243 -156.1034 estimate D2E/DX2         !
 ! D5    D(13,1,7,10)    -136.8626 -151.027   -86.5137 estimate D2E/DX2         !
 ! D6    D(13,1,7,25)      36.7676   25.1754   91.2927 estimate D2E/DX2         !
 ! D7    D(21,1,7,10)     -57.0084  -64.0218  -66.9962 estimate D2E/DX2         !
 ! D8    D(21,1,7,25)     116.6219  112.1806  110.8102 estimate D2E/DX2         !
 ! D9    D(61,1,7,10)     169.4706  164.4312 -159.1273 estimate D2E/DX2         !
 ! D10   D(61,1,7,25)     -16.8991  -19.3665   18.679  estimate D2E/DX2         !
 ! D11   D(2,1,15,16)    -126.787  -132.5668  117.3152 estimate D2E/DX2         !
 ! D12   D(2,1,15,18)      57.09     46.8712   -7.0382 estimate D2E/DX2         !
 ! D13   D(4,1,15,16)     130.4344  134.5698    8.9434 estimate D2E/DX2         !
 ! D14   D(4,1,15,18)     -45.6886  -45.9921 -115.41   estimate D2E/DX2         !
 ! D15   D(7,1,15,16)      48.7761   45.9148  -62.8995 estimate D2E/DX2         !
 ! D16   D(7,1,15,18)    -127.347  -134.6472  172.7471 estimate D2E/DX2         !
 ! D17   D(21,1,15,16)    -45.0532  -43.5417 -170.8879 estimate D2E/DX2         !
 ! D18   D(21,1,15,18)    138.8238  135.8964   64.7587 estimate D2E/DX2         !
 ! D19   D(2,1,21,27)      65.7703   64.9775   66.0092 estimate D2E/DX2         !
 ! D20   D(2,1,21,54)    -118.361  -119.1227 -116.3481 estimate D2E/DX2         !
 ! D21   D(6,1,21,27)     151.1775  154.3689  156.2852 estimate D2E/DX2         !
 ! D22   D(6,1,21,54)     -32.9537  -29.7313  -26.0721 estimate D2E/DX2         !
 ! D23   D(7,1,21,27)    -116.6224 -112.6715 -110.6537 estimate D2E/DX2         !
 ! D24   D(7,1,21,54)      59.2463   63.2282   66.989  estimate D2E/DX2         !
 ! D25   D(13,1,21,27)    -37.5817  -25.5371  -91.1356 estimate D2E/DX2         !
 ! D26   D(13,1,21,54)    138.287   150.3627   86.5071 estimate D2E/DX2         !
 ! D27   D(61,1,21,27)     16.8874   17.5031  -18.5141 estimate D2E/DX2         !
 ! D28   D(61,1,21,54)   -167.2439 -166.5972  159.1286 estimate D2E/DX2         !
 ! D29   D(1,7,10,33)     167.6564  170.9989  173.1231 estimate D2E/DX2         !
 ! D30   D(1,7,10,56)     -12.5031   -8.6878   -6.7473 estimate D2E/DX2         !
 ! D31   D(25,7,10,33)     -6.1985   -5.3429   -4.7922 estimate D2E/DX2         !
 ! D32   D(25,7,10,56)    173.6421  174.9705  175.3374 estimate D2E/DX2         !
 ! D33   D(1,7,25,8)     -170.3275 -174.1697 -177.2166 estimate D2E/DX2         !
 ! D34   D(1,7,25,26)       9.3549    5.9781    1.8568 estimate D2E/DX2         !
 ! D35   D(10,7,25,8)       3.5229    2.1817    0.6474 estimate D2E/DX2         !
 ! D36   D(10,7,25,26)   -176.7947 -177.6705  179.7208 estimate D2E/DX2         !
 ! D37   D(11,8,9,12)      -1.877    -1.589    -1.8553 estimate D2E/DX2         !
 ! D38   D(11,8,9,33)     178.2319  178.9627  178.9172 estimate D2E/DX2         !
 ! D39   D(25,8,9,12)     176.8353  176.9571  176.5923 estimate D2E/DX2         !
 ! D40   D(25,8,9,33)      -3.0557   -2.4911   -2.6352 estimate D2E/DX2         !
 ! D41   D(9,8,11,19)     113.9366  128.0158  111.5414 estimate D2E/DX2         !
 ! D42   D(25,8,11,19)    -64.7686  -50.5278  -66.9071 estimate D2E/DX2         !
 ! D43   D(9,8,25,7)        0.9912    1.6357    2.9883 estimate D2E/DX2         !
 ! D44   D(9,8,25,26)    -178.6803 -178.5168 -176.0389 estimate D2E/DX2         !
 ! D45   D(11,8,25,7)     179.7242 -179.7923 -178.5399 estimate D2E/DX2         !
 ! D46   D(11,8,25,26)      0.0526    0.0552    2.4328 estimate D2E/DX2         !
 ! D47   D(8,9,33,10)       0.6796   -0.3199   -1.0696 estimate D2E/DX2         !
 ! D48   D(8,9,33,34)    -178.5598  179.0584  179.0325 estimate D2E/DX2         !
 ! D49   D(12,9,33,10)   -179.2119 -179.7707  179.6995 estimate D2E/DX2         !
 ! D50   D(12,9,33,34)      1.5487   -0.3925   -0.1985 estimate D2E/DX2         !
 ! D51   D(7,10,33,9)       4.1318    4.4392    5.015  estimate D2E/DX2         !
 ! D52   D(7,10,33,34)   -176.6193 -174.9538 -175.0839 estimate D2E/DX2         !
 ! D53   D(56,10,33,9)   -175.7048 -175.8802 -175.1168 estimate D2E/DX2         !
 ! D54   D(56,10,33,34)     3.544     4.7267    4.7842 estimate D2E/DX2         !
 ! D55   D(8,11,19,16)    124.2079  117.7639   53.3578 estimate D2E/DX2         !
 ! D56   D(62,13,15,16)     6.5514    0.4233   89.7844 estimate D2E/DX2         !
 ! D57   D(62,13,15,18)  -171.6887 -179.8178  -89.249  estimate D2E/DX2         !
 ! D58   D(14,13,62,31)    -7.688     1.3918 -178.9573 estimate D2E/DX2         !
 ! D59   D(14,15,16,17)  -178.9942  179.857  -178.3155 estimate D2E/DX2         !
 ! D60   D(14,15,16,19)     0.8919   -0.1263    1.3773 estimate D2E/DX2         !
 ! D61   D(18,15,16,17)    -0.0309    0.0027    0.8132 estimate D2E/DX2         !
 ! D62   D(18,15,16,19)   179.8552 -179.9806 -179.494  estimate D2E/DX2         !
 ! D63   D(14,15,18,20)    -0.7851    0.1848   -1.3207 estimate D2E/DX2         !
 ! D64   D(14,15,18,58)   178.9951 -179.8524  178.3373 estimate D2E/DX2         !
 ! D65   D(16,15,18,20)  -179.7654 -179.9624  179.5513 estimate D2E/DX2         !
 ! D66   D(16,15,18,58)     0.0148    0.0003   -0.7907 estimate D2E/DX2         !
 ! D67   D(15,16,17,29)   179.9583  179.998   179.6371 estimate D2E/DX2         !
 ! D68   D(15,16,17,57)     0.0564   -0.0077   -0.1502 estimate D2E/DX2         !
 ! D69   D(19,16,17,29)     0.0734   -0.0189   -0.0534 estimate D2E/DX2         !
 ! D70   D(19,16,17,57)  -179.8285  179.9755 -179.8408 estimate D2E/DX2         !
 ! D71   D(15,16,19,11)   -66.2724  -64.5372  -76.5178 estimate D2E/DX2         !
 ! D72   D(17,16,19,11)   113.6116  115.4798  103.1717 estimate D2E/DX2         !
 ! D73   D(16,17,57,58)    -0.067     0.0098   -0.5324 estimate D2E/DX2         !
 ! D74   D(16,17,57,60)   179.8704 -179.988   179.6298 estimate D2E/DX2         !
 ! D75   D(29,17,57,58)  -179.9684 -179.9959  179.6812 estimate D2E/DX2         !
 ! D76   D(29,17,57,60)    -0.031     0.0063   -0.1566 estimate D2E/DX2         !
 ! D77   D(15,18,20,24)   -38.8433  -39.6752   72.2844 estimate D2E/DX2         !
 ! D78   D(15,18,20,61)    -2.244     2.2233   79.8547 estimate D2E/DX2         !
 ! D79   D(58,18,20,24)   141.3818  140.3632 -107.37   estimate D2E/DX2         !
 ! D80   D(58,18,20,61)   177.981  -177.7383  -99.7997 estimate D2E/DX2         !
 ! D81   D(15,18,58,57)    -0.0243    0.0017    0.1052 estimate D2E/DX2         !
 ! D82   D(15,18,58,59)  -179.8673  179.9964 -179.6257 estimate D2E/DX2         !
 ! D83   D(20,18,58,57)   179.7519  179.9635  179.7607 estimate D2E/DX2         !
 ! D84   D(20,18,58,59)    -0.0911   -0.0418    0.0298 estimate D2E/DX2         !
 ! D85   D(18,20,24,22)   109.2357  118.348   -46.9348 estimate D2E/DX2         !
 ! D86   D(1,21,27,22)    173.2779  173.7347  176.964  estimate D2E/DX2         !
 ! D87   D(1,21,27,28)     -6.6163   -6.4186   -2.0847 estimate D2E/DX2         !
 ! D88   D(54,21,27,22)    -2.724    -2.3232   -0.7414 estimate D2E/DX2         !
 ! D89   D(54,21,27,28)   177.3817  177.5235 -179.79   estimate D2E/DX2         !
 ! D90   D(1,21,54,52)   -169.988  -170.7064 -172.9049 estimate D2E/DX2         !
 ! D91   D(1,21,54,55)      9.9926    9.0522    6.903  estimate D2E/DX2         !
 ! D92   D(27,21,54,52)     6.0288    5.3464    4.8541 estimate D2E/DX2         !
 ! D93   D(27,21,54,55)  -173.9906 -174.895  -175.338  estimate D2E/DX2         !
 ! D94   D(24,22,23,52)  -178.6637 -178.8661 -178.9497 estimate D2E/DX2         !
 ! D95   D(24,22,23,53)     1.6264    1.5972    1.8437 estimate D2E/DX2         !
 ! D96   D(27,22,23,52)     2.8554    2.5283    2.6426 estimate D2E/DX2         !
 ! D97   D(27,22,23,53)  -176.8545 -177.0084 -176.5639 estimate D2E/DX2         !
 ! D98   D(23,22,24,20)  -157.1438 -167.1236 -114.2662 estimate D2E/DX2         !
 ! D99   D(27,22,24,20)    21.3291   11.4793   64.1416 estimate D2E/DX2         !
 ! D100  D(23,22,27,21)    -1.6115   -1.5128   -2.9271 estimate D2E/DX2         !
 ! D101  D(23,22,27,28)   178.2788  178.6454  176.0741 estimate D2E/DX2         !
 ! D102  D(24,22,27,21)   179.8842  179.8569  178.6415 estimate D2E/DX2         !
 ! D103  D(24,22,27,28)    -0.2255    0.0151   -2.3573 estimate D2E/DX2         !
 ! D104  D(22,23,52,48)   179.5876 -179.5503 -179.0167 estimate D2E/DX2         !
 ! D105  D(22,23,52,54)     0.0841    0.1582    1.0323 estimate D2E/DX2         !
 ! D106  D(53,23,52,48)    -0.7013   -0.0113    0.1935 estimate D2E/DX2         !
 ! D107  D(53,23,52,54)   179.7952  179.6972 -179.7574 estimate D2E/DX2         !
 ! D108  D(43,31,39,34)  -171.5517 -171.0588 -171.1073 estimate D2E/DX2         !
 ! D109  D(43,31,39,38)     7.5656    7.9929    8.0804 estimate D2E/DX2         !
 ! D110  D(62,31,39,34)  -178.4453 -178.5638   10.4416 estimate D2E/DX2         !
 ! D111  D(62,31,39,38)     0.6719    0.4878 -170.3707 estimate D2E/DX2         !
 ! D112  D(63,31,39,34)     7.9117    8.319  -178.7139 estimate D2E/DX2         !
 ! D113  D(63,31,39,38)  -172.9711 -172.6293    0.4738 estimate D2E/DX2         !
 ! D114  D(39,31,43,44)    -7.0893   -8.0368   -8.1047 estimate D2E/DX2         !
 ! D115  D(39,31,43,48)   171.9087  171.0122  171.1092 estimate D2E/DX2         !
 ! D116  D(62,31,43,44)    -0.1964   -0.532   170.3468 estimate D2E/DX2         !
 ! D117  D(62,31,43,48)   178.8016  178.517   -10.4393 estimate D2E/DX2         !
 ! D118  D(63,31,43,44)   173.448   172.5853   -0.4984 estimate D2E/DX2         !
 ! D119  D(63,31,43,48)    -7.554    -8.3657  178.7155 estimate D2E/DX2         !
 ! D120  D(39,31,62,13)    85.1035   86.7475   89.3766 estimate D2E/DX2         !
 ! D121  D(43,31,62,13)   -88.2839  -86.0571  -89.1292 estimate D2E/DX2         !
 ! D122  D(44,32,38,37)   178.4128  178.0761  178.3863 estimate D2E/DX2         !
 ! D123  D(44,32,38,39)    -2.1727   -2.5547   -2.5202 estimate D2E/DX2         !
 ! D124  D(62,32,38,37)    -0.623    -0.9271 -175.4289 estimate D2E/DX2         !
 ! D125  D(62,32,38,39)   178.7915  178.4421    3.6647 estimate D2E/DX2         !
 ! D126  D(63,32,38,37)  -176.4087 -176.3626   -0.8107 estimate D2E/DX2         !
 ! D127  D(63,32,38,39)     3.0059    3.0066  178.2828 estimate D2E/DX2         !
 ! D128  D(38,32,44,43)     2.6525    2.5098    2.496  estimate D2E/DX2         !
 ! D129  D(38,32,44,45)  -177.911  -178.1172 -178.4259 estimate D2E/DX2         !
 ! D130  D(62,32,44,43)  -178.312  -178.4869   -3.689  estimate D2E/DX2         !
 ! D131  D(62,32,44,45)     1.1246    0.8861  175.3891 estimate D2E/DX2         !
 ! D132  D(63,32,44,43)    -2.5232   -3.052  -178.3071 estimate D2E/DX2         !
 ! D133  D(63,32,44,45)   176.9134  176.3211    0.771  estimate D2E/DX2         !
 ! D134  D(9,33,34,35)     47.4017   51.0888   50.1007 estimate D2E/DX2         !
 ! D135  D(9,33,34,39)   -134.7095 -131.0271 -132.6936 estimate D2E/DX2         !
 ! D136  D(10,33,34,35)  -131.8089 -129.5527 -129.7941 estimate D2E/DX2         !
 ! D137  D(10,33,34,39)    46.0799   48.3314   47.4115 estimate D2E/DX2         !
 ! D138  D(33,34,35,36)   177.0584  176.8502  176.1599 estimate D2E/DX2         !
 ! D139  D(33,34,35,40)    -0.6744   -0.8529   -1.356  estimate D2E/DX2         !
 ! D140  D(39,34,35,36)    -0.8652   -1.0475   -1.0659 estimate D2E/DX2         !
 ! D141  D(39,34,35,40)  -178.598  -178.7507 -178.5818 estimate D2E/DX2         !
 ! D142  D(33,34,39,31)     5.1145    5.0696    6.0886 estimate D2E/DX2         !
 ! D143  D(33,34,39,38)  -173.9966 -173.9738 -173.0931 estimate D2E/DX2         !
 ! D144  D(35,34,39,31)  -176.9728 -177.0086 -176.6552 estimate D2E/DX2         !
 ! D145  D(35,34,39,38)     3.9161    3.9479    4.1631 estimate D2E/DX2         !
 ! D146  D(34,35,36,37)    -1.9373   -1.7539   -1.9335 estimate D2E/DX2         !
 ! D147  D(34,35,36,41)   179.8298 -179.946   179.9868 estimate D2E/DX2         !
 ! D148  D(40,35,36,37)   175.8125  175.9639  175.5989 estimate D2E/DX2         !
 ! D149  D(40,35,36,41)    -2.4204   -2.2281   -2.4808 estimate D2E/DX2         !
 ! D150  D(35,36,37,38)     1.578     1.5673    1.7411 estimate D2E/DX2         !
 ! D151  D(35,36,37,42)  -178.0115 -177.994  -177.8964 estimate D2E/DX2         !
 ! D152  D(41,36,37,38)   179.7876  179.737   179.7978 estimate D2E/DX2         !
 ! D153  D(41,36,37,42)     0.1981    0.1757    0.1604 estimate D2E/DX2         !
 ! D154  D(36,37,38,32)  -179.0659 -179.2627 -179.5119 estimate D2E/DX2         !
 ! D155  D(36,37,38,39)     1.519     1.3667    1.3922 estimate D2E/DX2         !
 ! D156  D(42,37,38,32)     0.5322    0.3067    0.1322 estimate D2E/DX2         !
 ! D157  D(42,37,38,39)  -178.8828 -179.0639 -178.9637 estimate D2E/DX2         !
 ! D158  D(32,38,39,31)    -2.8178   -2.5673   -2.6519 estimate D2E/DX2         !
 ! D159  D(32,38,39,34)   176.3286  176.5107  176.5569 estimate D2E/DX2         !
 ! D160  D(37,38,39,31)   176.6134  176.824   176.4737 estimate D2E/DX2         !
 ! D161  D(37,38,39,34)    -4.2401   -4.0979   -4.3176 estimate D2E/DX2         !
 ! D162  D(31,43,44,32)     1.8663    2.6566    2.6995 estimate D2E/DX2         !
 ! D163  D(31,43,44,45)  -177.5862 -176.7383 -176.4112 estimate D2E/DX2         !
 ! D164  D(48,43,44,32)  -177.165  -176.4191 -176.5346 estimate D2E/DX2         !
 ! D165  D(48,43,44,45)     3.3825    4.186     4.3546 estimate D2E/DX2         !
 ! D166  D(31,43,48,47)   177.8038  176.9457  176.5563 estimate D2E/DX2         !
 ! D167  D(31,43,48,52)    -4.0868   -5.2827   -6.1537 estimate D2E/DX2         !
 ! D168  D(44,43,48,47)    -3.205    -4.0136   -4.2356 estimate D2E/DX2         !
 ! D169  D(44,43,48,52)   174.9044  173.758   173.0544 estimate D2E/DX2         !
 ! D170  D(32,44,45,46)   179.36    179.2214  179.5474 estimate D2E/DX2         !
 ! D171  D(32,44,45,49)    -0.145    -0.3466   -0.1163 estimate D2E/DX2         !
 ! D172  D(43,44,45,46)    -1.203    -1.4041   -1.3722 estimate D2E/DX2         !
 ! D173  D(43,44,45,49)   179.292   179.0279  178.9641 estimate D2E/DX2         !
 ! D174  D(44,45,46,47)    -1.2008   -1.6024   -1.7832 estimate D2E/DX2         !
 ! D175  D(44,45,46,50)  -179.5846 -179.7387 -179.8274 estimate D2E/DX2         !
 ! D176  D(49,45,46,47)   178.2932  177.9574  177.8742 estimate D2E/DX2         !
 ! D177  D(49,45,46,50)    -0.0906   -0.1789   -0.1699 estimate D2E/DX2         !
 ! D178  D(45,46,47,48)     1.4027    1.8123    1.9391 estimate D2E/DX2         !
 ! D179  D(45,46,47,51)  -176.4804 -175.853  -175.6076 estimate D2E/DX2         !
 ! D180  D(50,46,47,48)   179.8074  179.9713 -179.9938 estimate D2E/DX2         !
 ! D181  D(50,46,47,51)     1.9244    2.306     2.4595 estimate D2E/DX2         !
 ! D182  D(46,47,48,43)     0.8418    1.0412    1.1177 estimate D2E/DX2         !
 ! D183  D(46,47,48,52)  -177.2708 -176.7106 -176.1422 estimate D2E/DX2         !
 ! D184  D(51,47,48,43)   178.7111  178.691   178.648  estimate D2E/DX2         !
 ! D185  D(51,47,48,52)     0.5985    0.9392    1.388  estimate D2E/DX2         !
 ! D186  D(43,48,52,23)   132.8415  131.8205  132.61   estimate D2E/DX2         !
 ! D187  D(43,48,52,54)   -47.6726  -47.8786  -47.4405 estimate D2E/DX2         !
 ! D188  D(47,48,52,23)   -49.0724  -50.4459  -50.15   estimate D2E/DX2         !
 ! D189  D(47,48,52,54)   130.4135  129.855   129.7995 estimate D2E/DX2         !
 ! D190  D(23,52,54,21)    -4.7317   -4.2914   -5.0121 estimate D2E/DX2         !
 ! D191  D(23,52,54,55)   175.2882  175.9547  175.1833 estimate D2E/DX2         !
 ! D192  D(48,52,54,21)   175.7561  175.4238  175.0354 estimate D2E/DX2         !
 ! D193  D(48,52,54,55)    -4.2239   -4.3301   -4.7691 estimate D2E/DX2         !
 ! D194  D(17,57,58,18)     0.0506   -0.0068    0.5552 estimate D2E/DX2         !
 ! D195  D(17,57,58,59)   179.8929  179.9986 -179.7151 estimate D2E/DX2         !
 ! D196  D(60,57,58,18)  -179.8867  179.991  -179.607  estimate D2E/DX2         !
 ! D197  D(60,57,58,59)    -0.0444   -0.0036    0.1226 estimate D2E/DX2         !
 --------------------------------------------------------------------------------
 Trust Radius=3.00D-01 FncErr=1.00D-07 GrdErr=1.00D-06 EigMax=2.50D+02 EigMin=1.00D-04
 Number of steps in this run=    378 maximum allowed number of steps=    378.
 Search for a saddle point of order  1.
 GradGradGradGradGradGradGradGradGradGradGradGradGradGradGradGradGradGrad

 Stoichiometry    C34H21BrMnN3O3
 Framework group  C1[X(C34H21BrMnN3O3)]
 Deg. of freedom   183
 Full point group                 C1      NOp   1
 Largest Abelian subgroup         C1      NOp   1
 Largest concise Abelian subgroup C1      NOp   1
                         Standard orientation:                         
 ---------------------------------------------------------------------
 Center     Atomic      Atomic             Coordinates (Angstroms)
 Number     Number       Type             X           Y           Z
 ---------------------------------------------------------------------
      1         25           0        1.288646   -0.842138   -1.248627
      2          6           0        1.979767   -2.549868   -1.305443
      3          8           0        2.162348   -3.681750   -1.304711
      4          6           0        2.073342   -0.112001   -2.751398
      5          8           0        2.322329    0.419021   -3.736436
      6          6           0        0.033984   -1.459775   -2.357962
      7          7           0        0.293054    1.166344   -1.106886
      8          6           0        0.413743    3.500512   -0.576599
      9          6           0       -0.973784    3.583928   -0.514831
     10          6           0       -1.037408    1.279760   -1.135400
     11          1           0        1.042280    4.371596   -0.382925
     12          1           0       -1.464212    4.521479   -0.239821
     13          7           0        2.423909    0.033979    0.267210
     14          6           0        3.066228    0.570518    1.059441
     15          6           0        3.948964    1.242027    1.969212
     16          6           0        3.434123    1.917541    3.084436
     17          6           0        4.310177    2.578307    3.939262
     18          6           0        5.326418    1.223848    1.704712
     19          1           0        2.357953    1.921411    3.271006
     20          1           0        5.700181    0.692492    0.825739
     21          7           0        0.198787   -1.614843    0.518142
     22          6           0        0.189752   -2.337449    2.801777
     23          6           0       -1.200637   -2.288784    2.837323
     24          1           0        0.767708   -2.627693    3.680885
     25          6           0        1.004310    2.277659   -0.864390
     26          1           0        2.091301    2.183830   -0.896833
     27          6           0        0.848823   -1.979206    1.633848
     28          1           0        1.939446   -1.981846    1.588539
     29          1           0        3.920009    3.108558    4.811017
     30          8           0       -0.737558   -1.885218   -3.102127
     31          6           0       -3.356559    0.384126    0.567787
     32          6           0       -6.125487    0.329829    0.287537
     33          6           0       -1.735906    2.449994   -0.807417
     34          6           0       -3.225760    2.472844   -0.792504
     35          6           0       -3.906917    3.480853   -1.426516
     36          6           0       -5.332640    3.497710   -1.483214
     37          6           0       -6.061985    2.482428   -0.937192
     38          6           0       -5.407414    1.396693   -0.266687
     39          6           0       -3.976435    1.411100   -0.150137
     40          1           0       -3.349770    4.273361   -1.933386
     41          1           0       -5.832934    4.322424   -1.996759
     42          1           0       -7.153095    2.475419   -1.006770
     43          6           0       -4.055018   -0.730762    1.041333
     44          6           0       -5.485039   -0.746777    0.913720
     45          6           0       -6.218592   -1.860046    1.442040
     46          6           0       -5.564575   -2.900063    2.035045
     47          6           0       -4.139994   -2.911434    2.117678
     48          6           0       -3.385732   -1.873142    1.633776
     49          1           0       -7.308202   -1.860521    1.352006
     50          1           0       -6.125110   -3.750460    2.430864
     51          1           0       -3.642512   -3.785571    2.546535
     52          6           0       -1.897882   -1.938724    1.678538
     53          1           0       -1.742858   -2.516070    3.758821
     54          6           0       -1.135816   -1.656924    0.537654
     55          1           0       -1.644455   -1.455645   -0.405863
     56          1           0       -1.596497    0.393691   -1.438538
     57          6           0        5.682183    2.564638    3.681560
     58          6           0        6.189170    1.889897    2.569233
     59          1           0        7.263666    1.884728    2.372594
     60          1           0        6.364507    3.087816    4.356412
     61         35           0        4.275709   -1.201078   -1.658606
     62          1           0       -7.216962    0.330068    0.215511
     63          1           0       -2.288027    0.451772    0.757444
 ---------------------------------------------------------------------
 Rotational constants (GHZ):           0.1063920           0.0481990           0.0467017
 General basis read from cards:  (5D, 7F)
 There are   802 symmetry adapted cartesian basis functions of A   symmetry.
 There are   751 symmetry adapted basis functions of A   symmetry.
   751 basis functions,  1339 primitive gaussians,   802 cartesian basis functions
   165 alpha electrons      165 beta electrons
       nuclear repulsion energy      6021.5650638895 Hartrees.
 NAtoms=   63 NActive=   63 NUniq=   63 SFac= 1.00D+00 NAtFMM=   60 NAOKFM=T Big=T
 Integral buffers will be    131072 words long.
 Raffenetti 2 integral format.
 Two-electron integral symmetry is turned on.
 Nuclear repulsion after empirical dispersion term =     6021.5012767217 Hartrees.
 ------------------------------------------------------------------------------
 Polarizable Continuum Model (PCM)
 =================================
 Model                : PCM.
 Atomic radii         : UFF (Universal Force Field).
 Polarization charges : Total charges.
 Charge compensation  : None.
 Solution method      : On-the-fly selection.
 Cavity type          : Scaled VdW (van der Waals Surface) (Alpha=1.100).
 Cavity algorithm     : GePol (No added spheres)
                        Default sphere list used, NSphG=   63.
                        Lebedev-Laikov grids with approx.  5.0 points / Ang**2.
                        Smoothing algorithm: York/Karplus (Gamma=1.0000).
                        Polarization charges: spherical gaussians, with
                                              point-specific exponents (IZeta= 3).
                        Self-potential: point-specific (ISelfS= 7).
                        Self-field    : sphere-specific E.n sum rule (ISelfD= 2).
 1st derivatives      : Analytical E(r).r(x)/FMM algorithm (CHGder, D1EAlg=3).
                        Cavity 1st derivative terms included.
 Solvent              : TetraHydroFuran, Eps=   7.425700 Eps(inf)=   1.974025
 ------------------------------------------------------------------------------
 One-electron integrals computed using PRISM.
 PrsmSu:  requested number of processors reduced to:  11 ShMem   1 Linda.
 NBasis=   751 RedAO= T EigKep=  2.25D-04  NBF=   751
 NBsUse=   751 1.00D-06 EigRej= -1.00D+00 NBFU=   751
 ExpMin= 3.93D-02 ExpMax= 2.77D+05 ExpMxC= 1.70D+04 IAcc=3 IRadAn=         5 AccDes= 0.00D+00
 Harris functional with IExCor= 4639 and IRadAn=       5 diagonalized for initial guess.
 HarFok:  IExCor= 4639 AccDes= 0.00D+00 IRadAn=         5 IDoV= 1 UseB2=F ITyADJ=14
 ICtDFT=  3500011 ScaDFX=  1.000000  1.000000  1.000000  1.000000
 FoFCou: FMM=F IPFlag=           0 FMFlag=      100000 FMFlg1=        2001
         NFxFlg=           0 DoJE=T BraDBF=F KetDBF=T FulRan=T
         wScrn=  0.000000 ICntrl=       500 IOpCl=  0 I1Cent=   200000004 NGrid=           0
         NMat0=    1 NMatS0=      1 NMatT0=    0 NMatD0=    1 NMtDS0=    0 NMtDT0=    0
 Petite list used in FoFCou.
 Requested convergence on RMS density matrix=1.00D-08 within 128 cycles.
 Requested convergence on MAX density matrix=1.00D-06.
 Requested convergence on             energy=1.00D-06.
 No special actions if energy rises.
 CoulSu:  requested number of processors reduced to:  10 ShMem   1 Linda.
 Inv3:  Mode=1 IEnd=    66750267.
 Iteration    1 A*A^-1 deviation from unit magnitude is 3.33D-15 for   3454.
 Iteration    1 A*A^-1 deviation from orthogonality  is 2.38D-15 for   2342    903.
 Iteration    1 A^-1*A deviation from unit magnitude is 3.33D-15 for   3454.
 Iteration    1 A^-1*A deviation from orthogonality  is 3.55D-15 for   2411    935.
 CoulSu:  requested number of processors reduced to:  10 ShMem   1 Linda.
 CoulSu:  requested number of processors reduced to:  10 ShMem   1 Linda.
 Restarting incremental Fock formation.
 Error on total polarization charges =  0.02085
 SCF Done:  E(RwB97XD) =  -5421.42953487     A.U. after   22 cycles
            NFock= 22  Conv=0.60D-08     -V/T= 2.0041

 **********************************************************************

            Population analysis using the SCF density.

 **********************************************************************

 Orbital symmetries:
       Occupied  (A) (A) (A) (A) (A) (A) (A) (A) (A) (A) (A) (A)
                 (A) (A) (A) (A) (A) (A) (A) (A) (A) (A) (A) (A)
                 (A) (A) (A) (A) (A) (A) (A) (A) (A) (A) (A) (A)
                 (A) (A) (A) (A) (A) (A) (A) (A) (A) (A) (A) (A)
                 (A) (A) (A) (A) (A) (A) (A) (A) (A) (A) (A) (A)
                 (A) (A) (A) (A) (A) (A) (A) (A) (A) (A) (A) (A)
                 (A) (A) (A) (A) (A) (A) (A) (A) (A) (A) (A) (A)
                 (A) (A) (A) (A) (A) (A) (A) (A) (A) (A) (A) (A)
                 (A) (A) (A) (A) (A) (A) (A) (A) (A) (A) (A) (A)
                 (A) (A) (A) (A) (A) (A) (A) (A) (A) (A) (A) (A)
                 (A) (A) (A) (A) (A) (A) (A) (A) (A) (A) (A) (A)
                 (A) (A) (A) (A) (A) (A) (A) (A) (A) (A) (A) (A)
                 (A) (A) (A) (A) (A) (A) (A) (A) (A) (A) (A) (A)
                 (A) (A) (A) (A) (A) (A) (A) (A) (A)
       Virtual   (A) (A) (A) (A) (A) (A) (A) (A) (A) (A) (A) (A)
                 (A) (A) (A) (A) (A) (A) (A) (A) (A) (A) (A) (A)
                 (A) (A) (A) (A) (A) (A) (A) (A) (A) (A) (A) (A)
                 (A) (A) (A) (A) (A) (A) (A) (A) (A) (A) (A) (A)
                 (A) (A) (A) (A) (A) (A) (A) (A) (A) (A) (A) (A)
                 (A) (A) (A) (A) (A) (A) (A) (A) (A) (A) (A) (A)
                 (A) (A) (A) (A) (A) (A) (A) (A) (A) (A) (A) (A)
                 (A) (A) (A) (A) (A) (A) (A) (A) (A) (A) (A) (A)
                 (A) (A) (A) (A) (A) (A) (A) (A) (A) (A) (A) (A)
                 (A) (A) (A) (A) (A) (A) (A) (A) (A) (A) (A) (A)
                 (A) (A) (A) (A) (A) (A) (A) (A) (A) (A) (A) (A)
                 (A) (A) (A) (A) (A) (A) (A) (A) (A) (A) (A) (A)
                 (A) (A) (A) (A) (A) (A) (A) (A) (A) (A) (A) (A)
                 (A) (A) (A) (A) (A) (A) (A) (A) (A) (A) (A) (A)
                 (A) (A) (A) (A) (A) (A) (A) (A) (A) (A) (A) (A)
                 (A) (A) (A) (A) (A) (A) (A) (A) (A) (A) (A) (A)
                 (A) (A) (A) (A) (A) (A) (A) (A) (A) (A) (A) (A)
                 (A) (A) (A) (A) (A) (A) (A) (A) (A) (A) (A) (A)
                 (A) (A) (A) (A) (A) (A) (A) (A) (A) (A) (A) (A)
                 (A) (A) (A) (A) (A) (A) (A) (A) (A) (A) (A) (A)
                 (A) (A) (A) (A) (A) (A) (A) (A) (A) (A) (A) (A)
                 (A) (A) (A) (A) (A) (A) (A) (A) (A) (A) (A) (A)
                 (A) (A) (A) (A) (A) (A) (A) (A) (A) (A) (A) (A)
                 (A) (A) (A) (A) (A) (A) (A) (A) (A) (A) (A) (A)
                 (A) (A) (A) (A) (A) (A) (A) (A) (A) (A) (A) (A)
                 (A) (A) (A) (A) (A) (A) (A) (A) (A) (A) (A) (A)
                 (A) (A) (A) (A) (A) (A) (A) (A) (A) (A) (A) (A)
                 (A) (A) (A) (A) (A) (A) (A) (A) (A) (A) (A) (A)
                 (A) (A) (A) (A) (A) (A) (A) (A) (A) (A) (A) (A)
                 (A) (A) (A) (A) (A) (A) (A) (A) (A) (A) (A) (A)
                 (A) (A) (A) (A) (A) (A) (A) (A) (A) (A) (A) (A)
                 (A) (A) (A) (A) (A) (A) (A) (A) (A) (A) (A) (A)
                 (A) (A) (A) (A) (A) (A) (A) (A) (A) (A) (A) (A)
                 (A) (A) (A) (A) (A) (A) (A) (A) (A) (A) (A) (A)
                 (A) (A) (A) (A) (A) (A) (A) (A) (A) (A) (A) (A)
                 (A) (A) (A) (A) (A) (A) (A) (A) (A) (A) (A) (A)
                 (A) (A) (A) (A) (A) (A) (A) (A) (A) (A) (A) (A)
                 (A) (A) (A) (A) (A) (A) (A) (A) (A) (A) (A) (A)
                 (A) (A) (A) (A) (A) (A) (A) (A) (A) (A) (A) (A)
                 (A) (A) (A) (A) (A) (A) (A) (A) (A) (A) (A) (A)
                 (A) (A) (A) (A) (A) (A) (A) (A) (A) (A) (A) (A)
                 (A) (A) (A) (A) (A) (A) (A) (A) (A) (A) (A) (A)
                 (A) (A) (A) (A) (A) (A) (A) (A) (A) (A) (A) (A)
                 (A) (A) (A) (A) (A) (A) (A) (A) (A) (A) (A) (A)
                 (A) (A) (A) (A) (A) (A) (A) (A) (A) (A) (A) (A)
                 (A) (A) (A) (A) (A) (A) (A) (A) (A) (A) (A) (A)
                 (A) (A) (A) (A) (A) (A) (A) (A) (A) (A) (A) (A)
                 (A) (A) (A) (A) (A) (A) (A) (A) (A) (A) (A) (A)
                 (A) (A) (A) (A) (A) (A) (A) (A) (A) (A)
 The electronic state is 1-A.
 Alpha  occ. eigenvalues -- -482.95953-235.68284 -62.54030 -56.34596 -56.34582
 Alpha  occ. eigenvalues --  -56.34561 -27.45055 -23.50995 -23.50866 -23.50285
 Alpha  occ. eigenvalues --  -19.32489 -19.32178 -19.32148 -14.49868 -14.49780
 Alpha  occ. eigenvalues --  -14.48516 -10.40242 -10.40235 -10.40119 -10.37776
 Alpha  occ. eigenvalues --  -10.36545 -10.36541 -10.36068 -10.36064 -10.35948
 Alpha  occ. eigenvalues --  -10.34314 -10.34304 -10.34202 -10.34198 -10.33785
 Alpha  occ. eigenvalues --  -10.33507 -10.33404 -10.33395 -10.33136 -10.33131
 Alpha  occ. eigenvalues --  -10.33087 -10.33082 -10.32926 -10.32719 -10.32717
 Alpha  occ. eigenvalues --  -10.32623 -10.32500 -10.32140 -10.32137 -10.31951
 Alpha  occ. eigenvalues --  -10.31889 -10.31851 -10.31845 -10.31707 -10.31702
 Alpha  occ. eigenvalues --   -8.70836  -6.52572  -6.52514  -6.52438  -3.24500
 Alpha  occ. eigenvalues --   -2.63087  -2.63083  -2.63019  -2.62973  -2.62964
 Alpha  occ. eigenvalues --   -2.10390  -2.09971  -2.08805  -1.21312  -1.21193
 Alpha  occ. eigenvalues --   -1.21102  -1.07879  -1.07617  -1.04106  -1.00051
 Alpha  occ. eigenvalues --   -0.98330  -0.97355  -0.94110  -0.92921  -0.91164
 Alpha  occ. eigenvalues --   -0.90474  -0.89454  -0.88601  -0.87105  -0.86676
 Alpha  occ. eigenvalues --   -0.85000  -0.84747  -0.81685  -0.76627  -0.76383
 Alpha  occ. eigenvalues --   -0.75443  -0.75219  -0.75006  -0.74895  -0.74082
 Alpha  occ. eigenvalues --   -0.72282  -0.72057  -0.69913  -0.68709  -0.67043
 Alpha  occ. eigenvalues --   -0.66014  -0.64444  -0.64378  -0.64159  -0.63505
 Alpha  occ. eigenvalues --   -0.63168  -0.62312  -0.61859  -0.60607  -0.59755
 Alpha  occ. eigenvalues --   -0.59626  -0.57637  -0.57522  -0.57421  -0.57126
 Alpha  occ. eigenvalues --   -0.56202  -0.55905  -0.55668  -0.55491  -0.55274
 Alpha  occ. eigenvalues --   -0.54865  -0.54539  -0.54173  -0.53915  -0.53435
 Alpha  occ. eigenvalues --   -0.53261  -0.53234  -0.52883  -0.52547  -0.52275
 Alpha  occ. eigenvalues --   -0.52029  -0.51668  -0.51605  -0.51027  -0.50987
 Alpha  occ. eigenvalues --   -0.50893  -0.50697  -0.49746  -0.49165  -0.48875
 Alpha  occ. eigenvalues --   -0.48328  -0.48247  -0.47454  -0.47236  -0.47091
 Alpha  occ. eigenvalues --   -0.46230  -0.45914  -0.44743  -0.44660  -0.43498
 Alpha  occ. eigenvalues --   -0.42778  -0.41872  -0.40837  -0.40564  -0.40293
 Alpha  occ. eigenvalues --   -0.39810  -0.39224  -0.37567  -0.36316  -0.35996
 Alpha  occ. eigenvalues --   -0.35874  -0.33480  -0.33177  -0.33113  -0.31390
 Alpha  occ. eigenvalues --   -0.30821  -0.29567  -0.29478  -0.27869  -0.25893
 Alpha virt. eigenvalues --   -0.02829  -0.00454   0.00546   0.00710   0.02082
 Alpha virt. eigenvalues --    0.02207   0.02599   0.03692   0.04996   0.05495
 Alpha virt. eigenvalues --    0.06471   0.06842   0.07914   0.08433   0.08626
 Alpha virt. eigenvalues --    0.09252   0.09629   0.10344   0.11703   0.12328
 Alpha virt. eigenvalues --    0.12794   0.13295   0.13661   0.13875   0.14433
 Alpha virt. eigenvalues --    0.14568   0.14968   0.15361   0.15521   0.15936
 Alpha virt. eigenvalues --    0.16460   0.16667   0.17425   0.18067   0.18902
 Alpha virt. eigenvalues --    0.18961   0.19552   0.20079   0.20411   0.20719
 Alpha virt. eigenvalues --    0.21397   0.21895   0.22275   0.22429   0.22512
 Alpha virt. eigenvalues --    0.22992   0.23172   0.23320   0.24364   0.25081
 Alpha virt. eigenvalues --    0.26197   0.26899   0.27655   0.27672   0.28712
 Alpha virt. eigenvalues --    0.29863   0.30197   0.30394   0.30507   0.30815
 Alpha virt. eigenvalues --    0.31502   0.32246   0.32580   0.32779   0.32851
 Alpha virt. eigenvalues --    0.32983   0.33581   0.33904   0.34215   0.34662
 Alpha virt. eigenvalues --    0.34827   0.35423   0.35443   0.35867   0.35895
 Alpha virt. eigenvalues --    0.36571   0.36882   0.37215   0.37331   0.37915
 Alpha virt. eigenvalues --    0.38400   0.38675   0.40032   0.40190   0.40281
 Alpha virt. eigenvalues --    0.40422   0.41392   0.41713   0.41922   0.42250
 Alpha virt. eigenvalues --    0.42613   0.42697   0.43485   0.44060   0.44468
 Alpha virt. eigenvalues --    0.45203   0.46794   0.46910   0.47132   0.47654
 Alpha virt. eigenvalues --    0.47709   0.48068   0.48208   0.49194   0.49430
 Alpha virt. eigenvalues --    0.49661   0.50467   0.51332   0.51427   0.51891
 Alpha virt. eigenvalues --    0.52172   0.52523   0.52671   0.52872   0.52926
 Alpha virt. eigenvalues --    0.53234   0.53637   0.54409   0.54537   0.55001
 Alpha virt. eigenvalues --    0.55053   0.55438   0.55896   0.56126   0.56516
 Alpha virt. eigenvalues --    0.56751   0.57306   0.57708   0.57826   0.58209
 Alpha virt. eigenvalues --    0.58686   0.59257   0.59381   0.60121   0.60463
 Alpha virt. eigenvalues --    0.61008   0.61684   0.61745   0.62239   0.62518
 Alpha virt. eigenvalues --    0.63607   0.63886   0.64523   0.64564   0.65108
 Alpha virt. eigenvalues --    0.65610   0.66284   0.66928   0.66943   0.67199
 Alpha virt. eigenvalues --    0.67757   0.67933   0.68543   0.68624   0.69190
 Alpha virt. eigenvalues --    0.69826   0.70356   0.70633   0.71266   0.71463
 Alpha virt. eigenvalues --    0.71606   0.72271   0.72391   0.72845   0.72955
 Alpha virt. eigenvalues --    0.73107   0.73190   0.73515   0.73615   0.74118
 Alpha virt. eigenvalues --    0.74542   0.74720   0.74918   0.75219   0.75359
 Alpha virt. eigenvalues --    0.75773   0.76265   0.76398   0.76628   0.77067
 Alpha virt. eigenvalues --    0.77183   0.77521   0.77817   0.78221   0.79050
 Alpha virt. eigenvalues --    0.79128   0.79353   0.79604   0.79742   0.80323
 Alpha virt. eigenvalues --    0.80879   0.81273   0.81511   0.81842   0.82089
 Alpha virt. eigenvalues --    0.82284   0.82806   0.83130   0.83465   0.83583
 Alpha virt. eigenvalues --    0.84244   0.84472   0.84779   0.85347   0.85471
 Alpha virt. eigenvalues --    0.85779   0.86045   0.86661   0.86973   0.87527
 Alpha virt. eigenvalues --    0.87633   0.87884   0.88540   0.88604   0.89430
 Alpha virt. eigenvalues --    0.90330   0.90707   0.90801   0.91333   0.91741
 Alpha virt. eigenvalues --    0.92134   0.92439   0.92866   0.92974   0.93982
 Alpha virt. eigenvalues --    0.94757   0.95387   0.95780   0.96012   0.96405
 Alpha virt. eigenvalues --    0.97011   0.97160   0.97763   0.97844   0.99226
 Alpha virt. eigenvalues --    0.99506   1.00355   1.00981   1.01786   1.03049
 Alpha virt. eigenvalues --    1.03520   1.04695   1.05628   1.05828   1.07260
 Alpha virt. eigenvalues --    1.08988   1.09659   1.10063   1.11099   1.13060
 Alpha virt. eigenvalues --    1.13728   1.13966   1.14766   1.16011   1.16191
 Alpha virt. eigenvalues --    1.16231   1.16316   1.17067   1.17377   1.17917
 Alpha virt. eigenvalues --    1.18405   1.19391   1.20483   1.20697   1.22594
 Alpha virt. eigenvalues --    1.23058   1.23657   1.25795   1.25937   1.26481
 Alpha virt. eigenvalues --    1.26584   1.26956   1.27635   1.27849   1.28150
 Alpha virt. eigenvalues --    1.28863   1.29269   1.29450   1.30078   1.30507
 Alpha virt. eigenvalues --    1.30587   1.31099   1.31539   1.31615   1.32213
 Alpha virt. eigenvalues --    1.32462   1.33251   1.33706   1.34441   1.34729
 Alpha virt. eigenvalues --    1.35318   1.35446   1.35716   1.36055   1.36181
 Alpha virt. eigenvalues --    1.36536   1.37299   1.37592   1.38400   1.39137
 Alpha virt. eigenvalues --    1.39342   1.39884   1.40826   1.41665   1.42011
 Alpha virt. eigenvalues --    1.42339   1.44233   1.44946   1.45682   1.46355
 Alpha virt. eigenvalues --    1.47214   1.47654   1.50253   1.51005   1.52626
 Alpha virt. eigenvalues --    1.54346   1.54780   1.56186   1.59297   1.59586
 Alpha virt. eigenvalues --    1.60513   1.61231   1.64269   1.64964   1.65676
 Alpha virt. eigenvalues --    1.66744   1.67152   1.67472   1.68282   1.69794
 Alpha virt. eigenvalues --    1.70451   1.71851   1.72579   1.73019   1.73369
 Alpha virt. eigenvalues --    1.73504   1.74122   1.74654   1.74831   1.75505
 Alpha virt. eigenvalues --    1.75957   1.76625   1.77234   1.77570   1.78400
 Alpha virt. eigenvalues --    1.78513   1.78827   1.79011   1.79458   1.79796
 Alpha virt. eigenvalues --    1.80074   1.80585   1.80828   1.81036   1.81319
 Alpha virt. eigenvalues --    1.81543   1.81751   1.81786   1.81995   1.82446
 Alpha virt. eigenvalues --    1.83001   1.83325   1.83469   1.83717   1.83945
 Alpha virt. eigenvalues --    1.84275   1.84453   1.85598   1.85639   1.86211
 Alpha virt. eigenvalues --    1.86437   1.86497   1.86966   1.87591   1.88183
 Alpha virt. eigenvalues --    1.89003   1.89567   1.89948   1.90157   1.90524
 Alpha virt. eigenvalues --    1.91002   1.91273   1.91970   1.92521   1.93961
 Alpha virt. eigenvalues --    1.94569   1.95921   1.96394   1.96507   1.97387
 Alpha virt. eigenvalues --    1.97801   1.98492   1.99200   1.99817   2.00489
 Alpha virt. eigenvalues --    2.01142   2.01425   2.01545   2.02169   2.02594
 Alpha virt. eigenvalues --    2.02693   2.03467   2.03828   2.04241   2.04558
 Alpha virt. eigenvalues --    2.04924   2.05178   2.05408   2.06626   2.07157
 Alpha virt. eigenvalues --    2.07706   2.08697   2.09966   2.10215   2.10387
 Alpha virt. eigenvalues --    2.10877   2.11887   2.12424   2.14126   2.14352
 Alpha virt. eigenvalues --    2.15294   2.15474   2.16304   2.17171   2.17575
 Alpha virt. eigenvalues --    2.18238   2.18332   2.18411   2.19427   2.20069
 Alpha virt. eigenvalues --    2.20470   2.20740   2.21484   2.21769   2.23105
 Alpha virt. eigenvalues --    2.23800   2.24156   2.24538   2.25727   2.26381
 Alpha virt. eigenvalues --    2.28319   2.29917   2.30100   2.30409   2.31489
 Alpha virt. eigenvalues --    2.32024   2.32434   2.32934   2.34189   2.34743
 Alpha virt. eigenvalues --    2.35071   2.36097   2.36579   2.36823   2.37274
 Alpha virt. eigenvalues --    2.37912   2.38196   2.38945   2.39485   2.39545
 Alpha virt. eigenvalues --    2.40055   2.40806   2.41884   2.42513   2.42901
 Alpha virt. eigenvalues --    2.44203   2.45257   2.45476   2.46158   2.47113
 Alpha virt. eigenvalues --    2.47868   2.48189   2.50114   2.50316   2.51187
 Alpha virt. eigenvalues --    2.54049   2.55337   2.57039   2.57240   2.58977
 Alpha virt. eigenvalues --    2.60595   2.60730   2.61520   2.63915   2.64703
 Alpha virt. eigenvalues --    2.66196   2.66320   2.66835   2.67051   2.67370
 Alpha virt. eigenvalues --    2.68274   2.68389   2.70656   2.71139   2.71738
 Alpha virt. eigenvalues --    2.71818   2.72038   2.72099   2.72315   2.72464
 Alpha virt. eigenvalues --    2.72829   2.72934   2.74100   2.74704   2.74905
 Alpha virt. eigenvalues --    2.75780   2.79390   2.79431   2.79791   2.80046
 Alpha virt. eigenvalues --    2.80366   2.80474   2.81855   2.82027   2.82302
 Alpha virt. eigenvalues --    2.84224   2.85099   2.86013   2.86472   2.87271
 Alpha virt. eigenvalues --    2.87495   2.89963   2.91407   2.92864   2.94814
 Alpha virt. eigenvalues --    2.96088   2.97746   2.98446   2.99410   3.01438
 Alpha virt. eigenvalues --    3.02919   3.05503   3.06314   3.06585   3.07428
 Alpha virt. eigenvalues --    3.07720   3.09554   3.09873   3.11888   3.12532
 Alpha virt. eigenvalues --    3.16171   3.16459   3.19517   3.19727   3.20574
 Alpha virt. eigenvalues --    3.21110   3.21141   3.21797   3.23718   3.25795
 Alpha virt. eigenvalues --    3.26576   3.30832   3.31220   3.33073   3.33658
 Alpha virt. eigenvalues --    3.37794   3.39705   3.42029   3.49858   3.50850
 Alpha virt. eigenvalues --    3.51966   3.52390   3.55594   3.59865   3.62071
 Alpha virt. eigenvalues --    3.62949   3.63424   3.64108   3.65657   3.66152
 Alpha virt. eigenvalues --    3.66671   3.67415   3.70792   3.71944   3.72729
 Alpha virt. eigenvalues --    3.76329   3.77710   3.77942   3.84540   3.84614
 Alpha virt. eigenvalues --    3.89719   3.95476   3.95998   4.01808   4.01983
 Alpha virt. eigenvalues --    4.14096
          Condensed to atoms (all electrons):
 Mulliken charges:
               1
     1  Mn  -0.638974
     2  C    0.321701
     3  O   -0.081599
     4  C    0.321662
     5  O   -0.081063
     6  C    0.303693
     7  N   -0.206134
     8  C   -0.037891
     9  C    0.042823
    10  C    0.092930
    11  H    0.060014
    12  H    0.053825
    13  N    0.114316
    14  C   -0.012170
    15  C   -0.163562
    16  C    0.025096
    17  C   -0.024086
    18  C    0.025090
    19  H    0.049030
    20  H    0.075461
    21  N   -0.209179
    22  C   -0.037686
    23  C    0.044876
    24  H    0.060329
    25  C    0.100887
    26  H    0.080333
    27  C    0.104963
    28  H    0.080843
    29  H    0.053496
    30  O   -0.093542
    31  C   -0.178596
    32  C   -0.083771
    33  C   -0.048912
    34  C    0.062101
    35  C   -0.065036
    36  C   -0.018839
    37  C   -0.018469
    38  C    0.016180
    39  C    0.081571
    40  H    0.034969
    41  H    0.043102
    42  H    0.031356
    43  C    0.082163
    44  C    0.015805
    45  C   -0.018174
    46  C   -0.019187
    47  C   -0.062976
    48  C    0.058935
    49  H    0.031255
    50  H    0.043161
    51  H    0.034792
    52  C   -0.050064
    53  H    0.053451
    54  C    0.094241
    55  H    0.060828
    56  H    0.061467
    57  C   -0.003866
    58  C   -0.021505
    59  H    0.055163
    60  H    0.056602
    61  Br  -0.820154
    62  H    0.020249
    63  H    0.046677
 Sum of Mulliken charges =  -0.00000
 Mulliken charges with hydrogens summed into heavy atoms:
               1
     1  Mn  -0.638974
     2  C    0.321701
     3  O   -0.081599
     4  C    0.321662
     5  O   -0.081063
     6  C    0.303693
     7  N   -0.206134
     8  C    0.022124
     9  C    0.096648
    10  C    0.154397
    13  N    0.114316
    14  C   -0.012170
    15  C   -0.163562
    16  C    0.074126
    17  C    0.029410
    18  C    0.100551
    21  N   -0.209179
    22  C    0.022642
    23  C    0.098328
    25  C    0.181220
    27  C    0.185806
    30  O   -0.093542
    31  C   -0.131919
    32  C   -0.063522
    33  C   -0.048912
    34  C    0.062101
    35  C   -0.030067
    36  C    0.024263
    37  C    0.012888
    38  C    0.016180
    39  C    0.081571
    43  C    0.082163
    44  C    0.015805
    45  C    0.013081
    46  C    0.023974
    47  C   -0.028184
    48  C    0.058935
    52  C   -0.050064
    54  C    0.155069
    57  C    0.052735
    58  C    0.033657
    61  Br  -0.820154
 Electronic spatial extent (au):  <R**2>=          24699.4283
 Charge=             -0.0000 electrons
 Dipole moment (field-independent basis, Debye):
    X=            -12.8943    Y=              9.6568    Z=             14.4650  Tot=             21.6507
 Quadrupole moment (field-independent basis, Debye-Ang):
   XX=           -258.6647   YY=           -235.2518   ZZ=           -256.4865
   XY=             35.0823   XZ=             47.8586   YZ=            -18.7949
 Traceless Quadrupole moment (field-independent basis, Debye-Ang):
   XX=             -8.5304   YY=             14.8825   ZZ=             -6.3522
   XY=             35.0823   XZ=             47.8586   YZ=            -18.7949
 Octapole moment (field-independent basis, Debye-Ang**2):
  XXX=           -190.3588  YYY=             56.3337  ZZZ=             68.7806  XYY=            -20.5867
  XXY=            157.2363  XXZ=            208.3956  XZZ=             60.4590  YZZ=              6.7498
  YYZ=             34.4829  XYZ=             74.3936
 Hexadecapole moment (field-independent basis, Debye-Ang**3):
 XXXX=         -18451.4345 YYYY=          -6335.6155 ZZZZ=          -5480.5543 XXXY=            797.1687
 XXXZ=           1028.2419 YYYX=            -33.8418 YYYZ=           -149.2238 ZZZX=            188.2390
 ZZZY=            163.8006 XXYY=          -4205.3376 XXZZ=          -4338.6423 YYZZ=          -1811.2405
 XXYZ=           -136.5945 YYXZ=            138.6889 ZZXY=            255.1392
 N-N= 6.021501276722D+03 E-N=-2.487257306538D+04  KE= 5.399471330757D+03
 PrsmSu:  requested number of processors reduced to:  11 ShMem   1 Linda.
 D1PCM: PCM CHGder 1st derivatives, ID1Alg=3 FixD1E=F DoIter=F DoCFld=F I1PDM=0.
 CoulSu:  requested number of processors reduced to:  10 ShMem   1 Linda.
 CoulSu:  requested number of processors reduced to:  10 ShMem   1 Linda.
[...]
   D52       -3.03312   0.00001   0.00000  -0.00703  -0.00700  -3.04012
   D53       -3.05504   0.00007   0.00000   0.00084   0.00074  -3.05430
   D54        0.10773   0.00004   0.00000  -0.00214  -0.00221   0.10552
   D55        2.53302  -0.00016   0.00000  -0.05301  -0.05285   2.48016
   D56       -0.12785   0.00003   0.00000  -0.03782  -0.03764  -0.16549
   D57        2.99700   0.00001   0.00000  -0.03801  -0.03784   2.95916
   D58       -1.13806   0.00008   0.00000  -0.00192  -0.00192  -1.13999
   D59        3.13900  -0.00009   0.00000  -0.00135  -0.00161   3.13739
   D60        0.00159  -0.00010   0.00000  -0.00587  -0.00601  -0.00442
   D61        0.00591  -0.00005   0.00000  -0.00495  -0.00488   0.00103
   D62       -3.13150  -0.00005   0.00000  -0.00947  -0.00929  -3.14078
   D63       -0.00778   0.00024   0.00000   0.01084   0.01172   0.00394
   D64       -3.13844   0.00014   0.00000   0.00065   0.00111  -3.13733
   D65        3.12490   0.00020   0.00000   0.01466   0.01517   3.14007
   D66       -0.00576   0.00009   0.00000   0.00446   0.00457  -0.00120
   D67       -3.14147  -0.00001   0.00000  -0.00016  -0.00017   3.14155
   D68       -0.00127  -0.00002   0.00000   0.00134   0.00116  -0.00011
   D69       -0.00410  -0.00000   0.00000   0.00441   0.00428   0.00018
   D70        3.13610  -0.00001   0.00000   0.00592   0.00561  -3.14148
   D71       -1.25825   0.00009   0.00000  -0.00198  -0.00122  -1.25947
   D72        1.88759   0.00008   0.00000  -0.00658  -0.00569   1.88190
   D73       -0.00344   0.00004   0.00000   0.00268   0.00281  -0.00063
   D74       -3.14148  -0.00001   0.00000  -0.00100  -0.00093   3.14078
   D75        3.13675   0.00003   0.00000   0.00419   0.00415   3.14090
   D76       -0.00129  -0.00002   0.00000   0.00051   0.00041  -0.00088
   D77       -0.95550  -0.00006   0.00000  -0.00516  -0.00547  -0.96097
   D78        0.12827   0.00026   0.00000   0.04556   0.04637   0.17464
   D79        2.17501   0.00005   0.00000   0.00518   0.00529   2.18029
   D80       -3.02441   0.00037   0.00000   0.05589   0.05713  -2.96728
   D81        0.00100  -0.00006   0.00000  -0.00039  -0.00055   0.00045
   D82        3.14116   0.00000   0.00000   0.00208   0.00214  -3.13988
   D83       -3.12969  -0.00017   0.00000  -0.01054  -0.01114  -3.14082
   D84        0.01048  -0.00010   0.00000  -0.00808  -0.00845   0.00203
   D85        1.42810   0.00042   0.00000   0.03958   0.03945   1.46755
   D86        2.96444   0.00011   0.00000   0.01425   0.01431   2.97875
   D87       -0.16804   0.00014   0.00000   0.01210   0.01220  -0.15584
   D88       -0.06383  -0.00002   0.00000   0.00149   0.00151  -0.06231
   D89        3.08688   0.00001   0.00000  -0.00067  -0.00060   3.08628
   D90       -2.90533  -0.00014   0.00000  -0.01416  -0.01422  -2.91955
   D91        0.23931  -0.00012   0.00000  -0.01616  -0.01615   0.22316
   D92        0.11630  -0.00000   0.00000  -0.00013  -0.00023   0.11606
   D93       -3.02225   0.00001   0.00000  -0.00212  -0.00216  -3.02441
   D94       -3.11014  -0.00001   0.00000   0.00174   0.00154  -3.10860
   D95        0.03790  -0.00006   0.00000  -0.00036  -0.00045   0.03745
   D96        0.06005  -0.00001   0.00000   0.00114   0.00101   0.06106
   D97       -3.07510  -0.00006   0.00000  -0.00097  -0.00098  -3.07607
   D98       -2.51192  -0.00025   0.00000  -0.05082  -0.05047  -2.56238
   D99        0.60102  -0.00026   0.00000  -0.05025  -0.04997   0.55105
   D100      -0.02223   0.00003   0.00000  -0.00204  -0.00195  -0.02419
   D101       3.10998   0.00001   0.00000   0.00017   0.00022   3.11020
   D102      -3.13595   0.00004   0.00000  -0.00257  -0.00242  -3.13837
   D103      -0.00374   0.00001   0.00000  -0.00036  -0.00024  -0.00398
   D104      -3.13554  -0.00004   0.00000   0.00869   0.00879  -3.12676
   D105      -0.01329  -0.00002   0.00000   0.00015   0.00020  -0.01309
   D106      -0.00037   0.00002   0.00000   0.01079   0.01077   0.01040
   D107       3.12188   0.00004   0.00000   0.00225   0.00218   3.12407
   D108      -3.02873   0.00002   0.00000  -0.00566  -0.00575  -3.03447
   D109       0.12043   0.00002   0.00000  -0.00441  -0.00445   0.11598
   D110       3.11938   0.00002   0.00000  -0.00101  -0.00105   3.11833
   D111      -0.01464   0.00002   0.00000   0.00024   0.00025  -0.01440
   D112       0.14632  -0.00000   0.00000  -0.00078  -0.00081   0.14551
   D113      -2.98771  -0.00000   0.00000   0.00046   0.00049  -2.98722
   D114      -0.12204  -0.00001   0.00000   0.00556   0.00562  -0.11642
   D115       3.02926  -0.00006   0.00000   0.00617   0.00627   3.03553
   D116       0.01287  -0.00004   0.00000   0.00100   0.00101   0.01388
   D117      -3.11901  -0.00008   0.00000   0.00160   0.00165  -3.11736
   D118       2.98615  -0.00000   0.00000   0.00067   0.00066   2.98682
   D119      -0.14573  -0.00004   0.00000   0.00128   0.00131  -0.14442
   D120       0.32873  -0.00004   0.00000   0.01677   0.01680   0.34553
   D121      -2.68432  -0.00004   0.00000   0.01248   0.01245  -2.67187
   D122       3.08234   0.00004   0.00000   0.00437   0.00446   3.08680
   D123      -0.07334   0.00004   0.00000   0.00342   0.00349  -0.06985
   D124      -0.06488   0.00007   0.00000   0.00145   0.00148  -0.06340
   D125       3.06263   0.00007   0.00000   0.00050   0.00050   3.06313
   D126      -3.07655   0.00001   0.00000   0.00118   0.00121  -3.07533
   D127       0.05096   0.00001   0.00000   0.00022   0.00024   0.05120
   D128       0.07171  -0.00003   0.00000  -0.00222  -0.00227   0.06944
   D129      -3.08470  -0.00001   0.00000  -0.00244  -0.00252  -3.08722
   D130      -3.06423  -0.00006   0.00000   0.00071   0.00072  -3.06351
   D131       0.06254  -0.00005   0.00000   0.00048   0.00047   0.06301
   D132      -0.05263  -0.00000   0.00000   0.00100   0.00100  -0.05163
   D133       3.07414   0.00001   0.00000   0.00077   0.00075   3.07489
   D134       0.80126   0.00007   0.00000  -0.00913  -0.00895   0.79232
   D135      -2.31968   0.00002   0.00000  -0.01344  -0.01324  -2.33292
   D136      -2.36237   0.00010   0.00000  -0.00603  -0.00588  -2.36825
   D137       0.79986   0.00005   0.00000  -0.01033  -0.01017   0.78970
   D138      -3.11797  -0.00008   0.00000  -0.00134  -0.00138  -3.11935
   D139       0.04508  -0.00004   0.00000  -0.00044  -0.00045   0.04463
   D140       0.00333  -0.00003   0.00000   0.00289   0.00284   0.00617
   D141      -3.11680   0.00001   0.00000   0.00378   0.00377  -3.11303
   D142       0.00311   0.00010   0.00000   0.00360   0.00367   0.00678
   D143       3.13707   0.00010   0.00000   0.00235   0.00237   3.13943
   D144      -3.11808   0.00005   0.00000  -0.00065  -0.00057  -3.11864
   D145       0.01588   0.00005   0.00000  -0.00190  -0.00187   0.01401
   D146      -0.01108  -0.00001   0.00000  -0.00201  -0.00198  -0.01307
   D147      -3.13905   0.00000   0.00000  -0.00219  -0.00216  -3.14121
   D148       3.10922  -0.00006   0.00000  -0.00290  -0.00291   3.10631
   D149      -0.01874  -0.00004   0.00000  -0.00308  -0.00309  -0.02184
   D150      -0.00103   0.00003   0.00000   0.00005   0.00007  -0.00096
   D151      -3.12884   0.00001   0.00000  -0.00011  -0.00012  -3.12896
   D152       3.12676   0.00002   0.00000   0.00023   0.00025   3.12701
   D153      -0.00104   0.00000   0.00000   0.00007   0.00006  -0.00099
   D154      -3.13554  -0.00000   0.00000  -0.00009  -0.00015  -3.13569
   D155       0.02014  -0.00001   0.00000   0.00087   0.00083   0.02097
   D156      -0.00747   0.00001   0.00000   0.00007   0.00004  -0.00743
   D157      -3.13497   0.00001   0.00000   0.00102   0.00102  -3.13395
   D158      -0.02104  -0.00003   0.00000  -0.00022  -0.00024  -0.02128
   D159       3.12787  -0.00003   0.00000   0.00098   0.00101   3.12888
   D160       3.10688  -0.00003   0.00000  -0.00115  -0.00119   3.10569
   D161      -0.02740  -0.00003   0.00000   0.00005   0.00006  -0.02734
   D162       0.02423   0.00003   0.00000  -0.00214  -0.00216   0.02208
   D163      -3.10300   0.00002   0.00000  -0.00191  -0.00191  -3.10491
   D164      -3.12677   0.00007   0.00000  -0.00272  -0.00278  -3.12956
   D165       0.02918   0.00006   0.00000  -0.00250  -0.00254   0.02664
   D166       3.11254   0.00000   0.00000   0.00374   0.00370   3.11624
   D167      -0.01253  -0.00007   0.00000   0.00708   0.00707  -0.00546
   D168      -0.01924  -0.00004   0.00000   0.00435   0.00435  -0.01489
   D169       3.13887  -0.00011   0.00000   0.00769   0.00772  -3.13660
   D170       3.13734  -0.00004   0.00000  -0.00036  -0.00030   3.13705
   D171       0.00901  -0.00005   0.00000  -0.00065  -0.00062   0.00840
   D172      -0.01907  -0.00002   0.00000  -0.00059  -0.00055  -0.01962
   D173       3.13578  -0.00003   0.00000  -0.00088  -0.00087   3.13491
   D174      -0.00125  -0.00002   0.00000   0.00184   0.00184   0.00059
   D175      -3.12833   0.00000   0.00000   0.00056   0.00054  -3.12779
   D176       3.12683  -0.00001   0.00000   0.00213   0.00216   3.12899
   D177      -0.00024   0.00001   0.00000   0.00084   0.00085   0.00061
   D178       0.01173   0.00003   0.00000   0.00008   0.00005   0.01178
   D179      -3.10601   0.00003   0.00000  -0.00326  -0.00328  -3.10929
   D180       3.13899   0.00001   0.00000   0.00134   0.00133   3.14032
   D181       0.02125   0.00001   0.00000  -0.00199  -0.00199   0.01926
   D182      -0.00115  -0.00000   0.00000  -0.00317  -0.00315  -0.00430
   D183       3.12405   0.00006   0.00000  -0.00656  -0.00658   3.11747
   D184       3.11639   0.00000   0.00000   0.00019   0.00020   3.11660
   D185      -0.04159   0.00006   0.00000  -0.00320  -0.00323  -0.04482
   D186       2.32944   0.00003   0.00000  -0.01685  -0.01699   2.31245
   D187      -0.79183   0.00001   0.00000  -0.00789  -0.00799  -0.79982
   D188      -0.79543  -0.00004   0.00000  -0.01344  -0.01356  -0.80899
   D189       2.36649  -0.00006   0.00000  -0.00449  -0.00456   2.36193
   D190      -0.07833   0.00001   0.00000  -0.00068  -0.00061  -0.07894
   D191       3.06012  -0.00000   0.00000   0.00137   0.00138   3.06150
   D192       3.04375   0.00003   0.00000  -0.00929  -0.00926   3.03450
   D193      -0.10097   0.00002   0.00000  -0.00723  -0.00727  -0.10824
   D194       0.00359  -0.00000   0.00000  -0.00318  -0.00313   0.00046
   D195      -3.13657  -0.00007   0.00000  -0.00565  -0.00583   3.14079
   D196      -3.14156   0.00005   0.00000   0.00051   0.00061  -3.14095
   D197       0.00147  -0.00002   0.00000  -0.00197  -0.00210  -0.00063
         Item               Value     Threshold  Converged?
 Maximum Force            0.001301     0.000450     NO 
 RMS     Force            0.000161     0.000300     YES
 Maximum Displacement     0.382062     0.001800     NO 
 RMS     Displacement     0.060102     0.001200     NO 
 Predicted change in Energy=-5.694277D-04
 GradGradGradGradGradGradGradGradGradGradGradGradGradGradGradGradGradGrad

 Stoichiometry    C34H21BrMnN3O3
 Framework group  C1[X(C34H21BrMnN3O3)]
 Deg. of freedom   183
 Full point group                 C1      NOp   1
 Largest Abelian subgroup         C1      NOp   1
 Largest concise Abelian subgroup C1      NOp   1
                         Standard orientation:                         
 ---------------------------------------------------------------------
 Center     Atomic      Atomic             Coordinates (Angstroms)
 Number     Number       Type             X           Y           Z
 ---------------------------------------------------------------------
      1         25           0        1.410114   -1.466637    0.284530
      2          6           0        2.471529   -1.902707    1.719123
      3          8           0        3.071946   -2.206541    2.639870
      4          6           0        2.446003   -2.470352   -0.854314
      5          8           0        3.048328   -3.115884   -1.576370
      6          6           0        0.362946   -2.914325    0.621643
      7          7           0        0.217344   -0.907924   -1.455205
      8          6           0        0.130542    0.220303   -3.567714
      9          6           0       -1.259288    0.196700   -3.547069
     10          6           0       -1.115508   -1.011105   -1.493851
     11          1           0        0.678463    0.682475   -4.389181
     12          1           0       -1.833467    0.672296   -4.344952
     13          7           0        2.361621    0.282021   -0.118086
     14          6           0        2.680675    1.368405   -0.338473
     15          6           0        2.913922    2.753999   -0.613107
     16          6           0        1.803376    3.539252   -0.967953
     17          6           0        1.984968    4.890497   -1.237844
     18          6           0        4.195539    3.315018   -0.527479
     19          1           0        0.812458    3.085155   -1.028875
     20          1           0        5.050085    2.698869   -0.250323
     21          7           0        0.253785   -0.213189    1.650139
     22          6           0        0.216718    1.726488    3.057806
     23          6           0       -1.172827    1.702666    3.091842
     24          1           0        0.788340    2.496634    3.575945
     25          6           0        0.828012   -0.322997   -2.499273
     26          1           0        1.916716   -0.279659   -2.475484
     27          6           0        0.887792    0.764457    2.318466
     28          1           0        1.975213    0.784247    2.255814
     29          1           0        1.128504    5.507575   -1.514094
     30          8           0       -0.307788   -3.821642    0.813823
     31          6           0       -3.420225    0.193224   -0.016349
     32          6           0       -6.193587    0.086226    0.040838
     33          6           0       -1.918152   -0.436364   -2.488629
     34          6           0       -3.403305   -0.471550   -2.419502
     35          6           0       -4.139189   -0.783481   -3.535905
     36          6           0       -5.563493   -0.799857   -3.510655
     37          6           0       -6.241309   -0.517529   -2.359693
     38          6           0       -5.530091   -0.201249   -1.157978
     39          6           0       -4.094846   -0.159642   -1.186695
     40          1           0       -3.626335   -1.046498   -4.463860
     41          1           0       -6.106870   -1.054084   -4.422546
     42          1           0       -7.333143   -0.540823   -2.334462
     43          6           0       -4.066602    0.374576    1.207694
     44          6           0       -5.501546    0.332713    1.233069
     45          6           0       -6.181054    0.562012    2.471960
     46          6           0       -5.473068    0.793996    3.616359
     47          6           0       -4.048528    0.812651    3.597752
     48          6           0       -3.342101    0.613605    2.436827
     49          1           0       -7.272986    0.535616    2.485988
     50          1           0       -5.992693    0.955863    4.562558
     51          1           0       -3.512147    0.970708    4.536252
     52          6           0       -1.855495    0.669083    2.442520
     53          1           0       -1.728782    2.483158    3.615378
     54          6           0       -1.076123   -0.284722    1.773522
     55          1           0       -1.559648   -1.148416    1.317673
     56          1           0       -1.581740   -1.585390   -0.693429
     57          6           0        3.260156    5.453103   -1.154764
     58          6           0        4.359397    4.669035   -0.801096
     59          1           0        5.353493    5.114219   -0.738586
     60          1           0        3.398603    6.514810   -1.368316
     61         35           0        5.995082   -1.377783    0.312104
     62          1           0       -7.284846    0.126683    0.041731
     63          1           0       -2.350529    0.368304   -0.067140
 ---------------------------------------------------------------------
 Rotational constants (GHZ):           0.1026884           0.0448776           0.0441675
 Basis read from rwf:  (5D, 7F)
 There are   802 symmetry adapted cartesian basis functions of A   symmetry.
 There are   751 symmetry adapted basis functions of A   symmetry.
   751 basis functions,  1339 primitive gaussians,   802 cartesian basis functions
   165 alpha electrons      165 beta electrons
       nuclear repulsion energy      5855.3187054780 Hartrees.
 NAtoms=   63 NActive=   63 NUniq=   63 SFac= 1.00D+00 NAtFMM=   60 NAOKFM=T Big=T
 Integral buffers will be    131072 words long.
 Raffenetti 2 integral format.
 Two-electron integral symmetry is turned on.
 Nuclear repulsion after empirical dispersion term =     5855.2547016099 Hartrees.
 ------------------------------------------------------------------------------
 Polarizable Continuum Model (PCM)
 =================================
 Model                : PCM.
 Atomic radii         : UFF (Universal Force Field).
 Polarization charges : Total charges.
 Charge compensation  : None.
 Solution method      : On-the-fly selection.
 Cavity type          : Scaled VdW (van der Waals Surface) (Alpha=1.100).
 Cavity algorithm     : GePol (No added spheres)
                        Default sphere list used, NSphG=   63.
                        Lebedev-Laikov grids with approx.  5.0 points / Ang**2.
                        Smoothing algorithm: York/Karplus (Gamma=1.0000).
                        Polarization charges: spherical gaussians, with
                                              point-specific exponents (IZeta= 3).
                        Self-potential: point-specific (ISelfS= 7).
                        Self-field    : sphere-specific E.n sum rule (ISelfD= 2).
 1st derivatives      : Analytical E(r).r(x)/FMM algorithm (CHGder, D1EAlg=3).
                        Cavity 1st derivative terms included.
 Solvent              : TetraHydroFuran, Eps=   7.425700 Eps(inf)=   1.974025
 ------------------------------------------------------------------------------
 One-electron integrals computed using PRISM.
 PrsmSu:  requested number of processors reduced to:  11 ShMem   1 Linda.
 NBasis=   751 RedAO= T EigKep=  2.22D-04  NBF=   751
 NBsUse=   751 1.00D-06 EigRej= -1.00D+00 NBFU=   751
 Initial guess from the checkpoint file:  "checkpoint.chk"
 B after Tr=    -0.000000   -0.000000    0.000000
         Rot=    0.998691   -0.050404    0.003425    0.008039 Ang=  -5.86 deg.
 ExpMin= 3.93D-02 ExpMax= 2.77D+05 ExpMxC= 1.70D+04 IAcc=3 IRadAn=         5 AccDes= 0.00D+00
 Harris functional with IExCor= 4639 and IRadAn=       5 diagonalized for initial guess.
 HarFok:  IExCor= 4639 AccDes= 0.00D+00 IRadAn=         5 IDoV= 1 UseB2=F ITyADJ=14
 ICtDFT=  3500011 ScaDFX=  1.000000  1.000000  1.000000  1.000000
 FoFCou: FMM=F IPFlag=           0 FMFlag=      100000 FMFlg1=        2001
         NFxFlg=           0 DoJE=T BraDBF=F KetDBF=T FulRan=T
         wScrn=  0.000000 ICntrl=       500 IOpCl=  0 I1Cent=   200000004 NGrid=           0
         NMat0=    1 NMatS0=      1 NMatT0=    0 NMatD0=    1 NMtDS0=    0 NMtDT0=    0
 Petite list used in FoFCou.
 Requested convergence on RMS density matrix=1.00D-08 within 128 cycles.
 Requested convergence on MAX density matrix=1.00D-06.
 Requested convergence on             energy=1.00D-06.
 No special actions if energy rises.
 CoulSu:  requested number of processors reduced to:   8 ShMem   1 Linda.
 Inv3:  Mode=1 IEnd=    71501772.
 Iteration    1 A*A^-1 deviation from unit magnitude is 3.66D-15 for   1016.
 Iteration    1 A*A^-1 deviation from orthogonality  is 2.66D-15 for   4292   1371.
 Iteration    1 A^-1*A deviation from unit magnitude is 3.22D-15 for   1016.
 Iteration    1 A^-1*A deviation from orthogonality  is 2.22D-15 for   2508     45.
 CoulSu:  requested number of processors reduced to:   8 ShMem   1 Linda.
 CoulSu:  requested number of processors reduced to:   8 ShMem   1 Linda.
