 Entering Gaussian System, Link 0=g16
 Initial command:
 /home1/apps/gaussian/16rA.03/g16/l1.exe "/tmp/Gau-169566.inp" -scrdir="/tmp/"
 Entering Link 1 = /home1/apps/gaussian/16rA.03/g16/l1.exe PID=    169567.
  
 Copyright (c) 1988,1990,1992,1993,1995,1998,2003,2009,2016,
            Gaussian, Inc.  All Rights Reserved.
  
 This is part of the Gaussian(R) 16 program.  It is based on
 the Gaussian(R) 09 system (copyright 2009, Gaussian, Inc.),
 the Gaussian(R) 03 system (copyright 2003, Gaussian, Inc.),
 the Gaussian(R) 98 system (copyright 1998, Gaussian, Inc.),
 the Gaussian(R) 94 system (copyright 1995, Gaussian, Inc.),
 the Gaussian 92(TM) system (copyright 1992, Gaussian, Inc.),
 the Gaussian 90(TM) system (copyright 1990, Gaussian, Inc.),
 the Gaussian 88(TM) system (copyright 1988, Gaussian, Inc.),
 the Gaussian 86(TM) system (copyright 1986, Carnegie Mellon
 University), and the Gaussian 82(TM) system (copyright 1983,
 Carnegie Mellon University). Gaussian is a federally registered
 trademark of Gaussian, Inc.
  
 This software contains proprietary and confidential information,
 including trade secrets, belonging to Gaussian, Inc.
  
 This software is provided under written license and may be
 used, copied, transmitted, or stored only in accord with that
 written license.
  
 The following legend is applicable only to US Government
 contracts under FAR:
  
                    RESTRICTED RIGHTS LEGEND
  
 Use, reproduction and disclosure by the US Government is
 subject to restrictions as set forth in subparagraphs (a)
 and (c) of the Commercial Computer Software - Restricted
 Rights clause in FAR 52.227-19.
  
 Gaussian, Inc.
 340 Quinnipiac St., Bldg. 40, Wallingford CT 06492
  
  
 ---------------------------------------------------------------
 Warning -- This program may not be used in any manner that
 competes with the business of Gaussian, Inc. or will provide
 assistance to any competitor of Gaussian, Inc.  The licensee
 of this program is prohibited from giving any competitor of
 Gaussian, Inc. access to this program.  By using this program,
 the user acknowledges that Gaussian, Inc. is engaged in the
 business of creating and licensing software in the field of
 computational chemistry and represents and warrants to the
 licensee that it is not a competitor of Gaussian, Inc. and that
 it will not use this program in any manner prohibited above.
 ---------------------------------------------------------------
  

 Cite this work as:
 Gaussian 16, Revision A.03,
 M. J. Frisch, G. W. Trucks, H. B. Schlegel, G. E. Scuseria, 
 M. A. Robb, J. R. Cheeseman, G. Scalmani, V. Barone, 
 G. A. Petersson, H. Nakatsuji, X. Li, M. Caricato, A. V. Marenich, 
 J. Bloino, B. G. Janesko, R. Gomperts, B. Mennucci, H. P. Hratchian, 
 J. V. Ortiz, A. F. Izmaylov, J. L. Sonnenberg, D. Williams-Young, 
 F. Ding, F. Lipparini, F. Egidi, J. Goings, B. Peng, A. Petrone, 
 T. Henderson, D. Ranasinghe, V. G. Zakrzewski, J. Gao, N. Rega, 
 G. Zheng, W. Liang, M. Hada, M. Ehara, K. Toyota, R. Fukuda, 
 J. Hasegawa, M. Ishida, T. Nakajima, Y. Honda, O. Kitao, H. Nakai, 
 T. Vreven, K. Throssell, J. A. Montgomery, Jr., J. E. Peralta, 
 F. Ogliaro, M. J. Bearpark, J. J. Heyd, E. N. Brothers, K. N. Kudin, 
 V. N. Staroverov, T. A. Keith, R. Kobayashi, J. Normand, 
 K. Raghavachari, A. P. Rendell, J. C. Burant, S. S. Iyengar, 
 J. Tomasi, M. Cossi, J. M. Millam, M. Klene, C. Adamo, R. Cammi, 
 J. W. Ochterski, R. L. Martin, K. Morokuma, O. Farkas, 
 J. B. Foresman, and D. J. Fox, Gaussian, Inc., Wallingford CT, 2016.
 
 ******************************************
 Gaussian 16:  ES64L-G16RevA.03 25-Dec-2016
                21-Feb-2023 
 ******************************************
 %RWF=myrwfile
 %NoSave
 %NProcShared=12
 Will use up to   12 processors via shared memory.
 %Chk=checkpoint.chk
 %mem=200MW
 -------------------------------------------------------
 # wB97XD Gen SCRF=(Solvent=TetraHydroFuran) Freq(Numer)
 -------------------------------------------------------
 1/10=4,30=1,38=11/1,6,3;
 2/12=2,17=6,18=5,40=1/2;
 3/5=7,11=2,25=1,30=1,70=2201,71=1,72=20,74=-58/1,2,3;
 4/69=2/1;
 5/5=2,38=5,53=20,98=1/2;
 6/7=2,8=2,9=2,10=2,12=2,28=1/1;
 7//1,2,3,16;
 1/38=10/6(3);
 7/8=1,25=1,44=-1/16;
 1/10=4,30=1,38=10/3;
 99//99;
 3/5=7,6=1,11=2,25=1,30=1,70=2205,71=1,72=20,74=-58,82=7/1,2,3;
 4/5=5,16=3,69=2/1;
 5/5=2,38=5,53=20,98=1/2;
 6/7=2,8=2,9=2,10=2,12=2,28=1/1;
 7/7=1/1,2,3,16;
 1/38=10/6(-5);
 7/8=1,25=1,44=-1/16;
 1/10=4,30=1,38=10/3;
 99//99;
 ----------------
 TS Freq Analysis
 ----------------
 Symbolic Z-matrix:
 Charge =  0 Multiplicity = 1
 Mn                   -1.14084  -2.02031  -0.07247 
 C                    -2.0565   -2.89445  -1.41935 
 O                    -2.55247  -3.48041  -2.26194 
 C                    -2.04901  -2.98496   1.2183 
 O                    -2.52948  -3.63073   2.02526 
 C                     0.12638  -3.27964  -0.11699 
 N                    -0.24046  -0.90582   1.50199 
 C                    -0.52478   0.64851   3.2988 
 C                     0.84907   0.85964   3.3629 
 C                     1.08206  -0.76195   1.6305 
 H                    -1.2097    1.17685   3.96203 
 H                     1.26772   1.58246   4.06642 
 N                    -2.31131   0.82647   0.00208 
 C                    -2.75042   1.89594   0.03017 
 C                    -3.29969   3.22243   0.06642 
 C                    -2.44575   4.33045  -0.04106 
 C                    -2.98398   5.61279  -0.00535 
 C                    -4.68432   3.39644   0.20863 
 H                    -1.37044   4.18131  -0.1519 
 H                    -5.33803   2.52654   0.29168 
 N                    -0.23294  -0.80527  -1.56858 
 C                    -0.50569   0.85238  -3.27243 
 C                     0.86693   1.07815  -3.3036 
 H                    -1.18553   1.41471  -3.91259 
 C                    -1.0318   -0.226     2.34819 
 H                    -2.10698  -0.377     2.24691 
 C                    -1.01815  -0.08291  -2.38449 
 H                    -2.09311  -0.24939  -2.30947 
 H                    -2.32523   6.47894  -0.08843 
 O                     0.95513  -4.07157  -0.14576 
 C                     3.21201   0.60011   0.03173 
 C                     5.99319   0.60061   0.03885 
 C                     1.69084   0.14181   2.50904 
 C                     3.16813   0.31517   2.50662 
 C                     3.88189   0.26904   3.67782 
 C                     5.30413   0.36368   3.68436 
 C                     6.00071   0.46566   2.51418 
 C                     5.31181   0.51377   1.25951 
 C                     3.87632   0.48464   1.2554 
 H                     3.35773   0.11809   4.6244 
 H                     5.83345   0.32236   4.63812 
 H                     7.09241   0.50386   2.5168 
 C                     3.88218   0.5742   -1.19373 
 C                     5.31779   0.60468  -1.18835 
 C                     6.01301   0.6509   -2.43957 
 C                     5.32227   0.63507  -3.61754 
 C                     3.90031   0.5372   -3.6251 
 C                     3.18019   0.49533  -2.45741 
 H                     7.10465   0.69094  -2.43399 
 H                     5.8562    0.66555  -4.56914 
 H                     3.38178   0.45492  -4.58324 
 C                     1.70364   0.31635  -2.48334 
 H                     1.28864   1.84544  -3.95626 
 C                     1.08993  -0.6423   -1.66856 
 H                     1.71029  -1.30623  -1.06742 
 H                     1.70615  -1.3953    1.00028 
 C                    -4.36137   5.7896    0.13616 
 C                    -5.20809   4.68519   0.2427 
 H                    -6.28438   4.82771   0.353 
 H                    -4.77887   6.79814   0.16362 
 Br                   -4.94895  -1.71019  -0.01043 
 H                     7.08507   0.64961   0.04374 
 H                     2.13057   0.70351   0.0329 
 
 Numerical evaluation of force-constants.
 Nuclear step= 0.001000 Angstroms, electric field step= 0.000333 atomic units, NStep=1.

 GradGradGradGradGradGradGradGradGradGradGradGradGradGradGradGradGradGrad
 Berny optimization.
 Initialization pass.
 Trust Radius=3.00D-01 FncErr=1.00D-07 GrdErr=1.00D-07 EigMax=2.50D+02 EigMin=1.00D-04
 Number of steps in this run=      2 maximum allowed number of steps=      2.
 GradGradGradGradGradGradGradGradGradGradGradGradGradGradGradGradGradGrad

 Stoichiometry    C34H21BrMnN3O3
 Framework group  C1[X(C34H21BrMnN3O3)]
 Deg. of freedom   183
 Full point group                 C1      NOp   1
 Largest Abelian subgroup         C1      NOp   1
 Largest concise Abelian subgroup C1      NOp   1
                         Standard orientation:                         
 ---------------------------------------------------------------------
 Center     Atomic      Atomic             Coordinates (Angstroms)
 Number     Number       Type             X           Y           Z
 ---------------------------------------------------------------------
      1         25           0       -1.140840   -2.020309   -0.072470
      2          6           0       -2.056500   -2.894449   -1.419350
      3          8           0       -2.552470   -3.480409   -2.261940
      4          6           0       -2.049010   -2.984959    1.218300
      5          8           0       -2.529480   -3.630729    2.025260
      6          6           0        0.126380   -3.279639   -0.116990
      7          7           0       -0.240460   -0.905819    1.501990
      8          6           0       -0.524780    0.648511    3.298800
      9          6           0        0.849070    0.859641    3.362900
     10          6           0        1.082060   -0.761949    1.630500
     11          1           0       -1.209700    1.176851    3.962030
     12          1           0        1.267720    1.582461    4.066420
     13          7           0       -2.311310    0.826471    0.002080
     14          6           0       -2.750420    1.895941    0.030170
     15          6           0       -3.299690    3.222431    0.066420
     16          6           0       -2.445750    4.330451   -0.041060
     17          6           0       -2.983980    5.612791   -0.005350
     18          6           0       -4.684320    3.396441    0.208630
     19          1           0       -1.370440    4.181311   -0.151900
     20          1           0       -5.338030    2.526541    0.291680
     21          7           0       -0.232940   -0.805269   -1.568580
     22          6           0       -0.505690    0.852381   -3.272430
     23          6           0        0.866930    1.078151   -3.303600
     24          1           0       -1.185530    1.414711   -3.912590
     25          6           0       -1.031800   -0.225999    2.348190
     26          1           0       -2.106980   -0.376999    2.246910
     27          6           0       -1.018150   -0.082909   -2.384490
     28          1           0       -2.093110   -0.249389   -2.309470
     29          1           0       -2.325230    6.478941   -0.088430
     30          8           0        0.955130   -4.071569   -0.145760
     31          6           0        3.212010    0.600111    0.031730
     32          6           0        5.993190    0.600611    0.038850
     33          6           0        1.690840    0.141811    2.509040
     34          6           0        3.168130    0.315171    2.506620
     35          6           0        3.881890    0.269041    3.677820
     36          6           0        5.304130    0.363681    3.684360
     37          6           0        6.000710    0.465661    2.514180
     38          6           0        5.311810    0.513771    1.259510
     39          6           0        3.876320    0.484641    1.255400
     40          1           0        3.357730    0.118091    4.624400
     41          1           0        5.833450    0.322361    4.638120
     42          1           0        7.092410    0.503861    2.516800
     43          6           0        3.882180    0.574201   -1.193730
     44          6           0        5.317790    0.604681   -1.188350
     45          6           0        6.013010    0.650901   -2.439570
     46          6           0        5.322270    0.635071   -3.617540
     47          6           0        3.900310    0.537201   -3.625100
     48          6           0        3.180190    0.495331   -2.457410
     49          1           0        7.104650    0.690941   -2.433990
     50          1           0        5.856200    0.665551   -4.569140
     51          1           0        3.381780    0.454921   -4.583240
     52          6           0        1.703640    0.316351   -2.483340
     53          1           0        1.288640    1.845441   -3.956260
     54          6           0        1.089930   -0.642299   -1.668560
     55          1           0        1.710290   -1.306229   -1.067420
     56          1           0        1.706150   -1.395299    1.000280
     57          6           0       -4.361370    5.789601    0.136160
     58          6           0       -5.208090    4.685191    0.242700
     59          1           0       -6.284380    4.827711    0.353000
     60          1           0       -4.778870    6.798141    0.163620
     61         35           0       -4.948950   -1.710189   -0.010430
     62          1           0        7.085070    0.649611    0.043740
     63          1           0        2.130570    0.703511    0.032900
 ---------------------------------------------------------------------
 Rotational constants (GHZ):           0.0899458           0.0495956           0.0452034
 General basis read from cards:  (5D, 7F)
 There are   802 symmetry adapted cartesian basis functions of A   symmetry.
 There are   751 symmetry adapted basis functions of A   symmetry.
   751 basis functions,  1339 primitive gaussians,   802 cartesian basis functions
   165 alpha electrons      165 beta electrons
       nuclear repulsion energy      5860.1859826260 Hartrees.
 NAtoms=   63 NActive=   63 NUniq=   63 SFac= 1.00D+00 NAtFMM=   60 NAOKFM=T Big=T
 Integral buffers will be    131072 words long.
 Raffenetti 2 integral format.
 Two-electron integral symmetry is turned on.
 Nuclear repulsion after empirical dispersion term =     5860.1229136750 Hartrees.
 ------------------------------------------------------------------------------
 Polarizable Continuum Model (PCM)
 =================================
 Model                : PCM.
 Atomic radii         : UFF (Universal Force Field).
 Polarization charges : Total charges.
 Charge compensation  : None.
 Solution method      : On-the-fly selection.
 Cavity type          : Scaled VdW (van der Waals Surface) (Alpha=1.100).
 Cavity algorithm     : GePol (No added spheres)
                        Default sphere list used, NSphG=   63.
                        Lebedev-Laikov grids with approx.  5.0 points / Ang**2.
                        Smoothing algorithm: York/Karplus (Gamma=1.0000).
                        Polarization charges: spherical gaussians, with
                                              point-specific exponents (IZeta= 3).
                        Self-potential: point-specific (ISelfS= 7).
                        Self-field    : sphere-specific E.n sum rule (ISelfD= 2).
 1st derivatives      : Analytical E(r).r(x)/FMM algorithm (CHGder, D1EAlg=3).
                        Cavity 1st derivative terms included.
 Solvent              : TetraHydroFuran, Eps=   7.425700 Eps(inf)=   1.974025
 ------------------------------------------------------------------------------
 One-electron integrals computed using PRISM.
 NBasis=   751 RedAO= T EigKep=  2.24D-04  NBF=   751
 NBsUse=   751 1.00D-06 EigRej= -1.00D+00 NBFU=   751
 ExpMin= 3.93D-02 ExpMax= 2.77D+05 ExpMxC= 1.70D+04 IAcc=3 IRadAn=         5 AccDes= 0.00D+00
 Harris functional with IExCor= 4639 and IRadAn=       5 diagonalized for initial guess.
 HarFok:  IExCor= 4639 AccDes= 0.00D+00 IRadAn=         5 IDoV= 1 UseB2=F ITyADJ=14
 ICtDFT=  3500011 ScaDFX=  1.000000  1.000000  1.000000  1.000000
 FoFCou: FMM=F IPFlag=           0 FMFlag=      100000 FMFlg1=        2001
         NFxFlg=           0 DoJE=T BraDBF=F KetDBF=T FulRan=T
         wScrn=  0.000000 ICntrl=       500 IOpCl=  0 I1Cent=   200000004 NGrid=           0
         NMat0=    1 NMatS0=      1 NMatT0=    0 NMatD0=    1 NMtDS0=    0 NMtDT0=    0
 Petite list used in FoFCou.
 Requested convergence on RMS density matrix=1.00D-08 within 128 cycles.
 Requested convergence on MAX density matrix=1.00D-06.
 Requested convergence on             energy=1.00D-06.
 No special actions if energy rises.
 Inv3:  Mode=1 IEnd=    73864332.
 Iteration    1 A*A^-1 deviation from unit magnitude is 3.55D-15 for    374.
 Iteration    1 A*A^-1 deviation from orthogonality  is 2.41D-15 for   2284    182.
 Iteration    1 A^-1*A deviation from unit magnitude is 3.77D-15 for    374.
 Iteration    1 A^-1*A deviation from orthogonality  is 2.50D-15 for   2129    708.
 Restarting incremental Fock formation.
 Error on total polarization charges =  0.02143
 SCF Done:  E(RwB97XD) =  -5421.44460101     A.U. after   21 cycles
            NFock= 21  Conv=0.48D-08     -V/T= 2.0041

 **********************************************************************

            Population analysis using the SCF density.

 **********************************************************************

 Orbital symmetries:
       Occupied  (A) (A) (A) (A) (A) (A) (A) (A) (A) (A) (A) (A)
                 (A) (A) (A) (A) (A) (A) (A) (A) (A) (A) (A) (A)
                 (A) (A) (A) (A) (A) (A) (A) (A) (A) (A) (A) (A)
                 (A) (A) (A) (A) (A) (A) (A) (A) (A) (A) (A) (A)
                 (A) (A) (A) (A) (A) (A) (A) (A) (A) (A) (A) (A)
                 (A) (A) (A) (A) (A) (A) (A) (A) (A) (A) (A) (A)
                 (A) (A) (A) (A) (A) (A) (A) (A) (A) (A) (A) (A)
                 (A) (A) (A) (A) (A) (A) (A) (A) (A) (A) (A) (A)
                 (A) (A) (A) (A) (A) (A) (A) (A) (A) (A) (A) (A)
                 (A) (A) (A) (A) (A) (A) (A) (A) (A) (A) (A) (A)
                 (A) (A) (A) (A) (A) (A) (A) (A) (A) (A) (A) (A)
                 (A) (A) (A) (A) (A) (A) (A) (A) (A) (A) (A) (A)
                 (A) (A) (A) (A) (A) (A) (A) (A) (A) (A) (A) (A)
                 (A) (A) (A) (A) (A) (A) (A) (A) (A)
       Virtual   (A) (A) (A) (A) (A) (A) (A) (A) (A) (A) (A) (A)
                 (A) (A) (A) (A) (A) (A) (A) (A) (A) (A) (A) (A)
                 (A) (A) (A) (A) (A) (A) (A) (A) (A) (A) (A) (A)
                 (A) (A) (A) (A) (A) (A) (A) (A) (A) (A) (A) (A)
                 (A) (A) (A) (A) (A) (A) (A) (A) (A) (A) (A) (A)
                 (A) (A) (A) (A) (A) (A) (A) (A) (A) (A) (A) (A)
                 (A) (A) (A) (A) (A) (A) (A) (A) (A) (A) (A) (A)
                 (A) (A) (A) (A) (A) (A) (A) (A) (A) (A) (A) (A)
                 (A) (A) (A) (A) (A) (A) (A) (A) (A) (A) (A) (A)
                 (A) (A) (A) (A) (A) (A) (A) (A) (A) (A) (A) (A)
                 (A) (A) (A) (A) (A) (A) (A) (A) (A) (A) (A) (A)
                 (A) (A) (A) (A) (A) (A) (A) (A) (A) (A) (A) (A)
                 (A) (A) (A) (A) (A) (A) (A) (A) (A) (A) (A) (A)
                 (A) (A) (A) (A) (A) (A) (A) (A) (A) (A) (A) (A)
                 (A) (A) (A) (A) (A) (A) (A) (A) (A) (A) (A) (A)
                 (A) (A) (A) (A) (A) (A) (A) (A) (A) (A) (A) (A)
                 (A) (A) (A) (A) (A) (A) (A) (A) (A) (A) (A) (A)
                 (A) (A) (A) (A) (A) (A) (A) (A) (A) (A) (A) (A)
                 (A) (A) (A) (A) (A) (A) (A) (A) (A) (A) (A) (A)
                 (A) (A) (A) (A) (A) (A) (A) (A) (A) (A) (A) (A)
                 (A) (A) (A) (A) (A) (A) (A) (A) (A) (A) (A) (A)
                 (A) (A) (A) (A) (A) (A) (A) (A) (A) (A) (A) (A)
                 (A) (A) (A) (A) (A) (A) (A) (A) (A) (A) (A) (A)
                 (A) (A) (A) (A) (A) (A) (A) (A) (A) (A) (A) (A)
                 (A) (A) (A) (A) (A) (A) (A) (A) (A) (A) (A) (A)
                 (A) (A) (A) (A) (A) (A) (A) (A) (A) (A) (A) (A)
                 (A) (A) (A) (A) (A) (A) (A) (A) (A) (A) (A) (A)
                 (A) (A) (A) (A) (A) (A) (A) (A) (A) (A) (A) (A)
                 (A) (A) (A) (A) (A) (A) (A) (A) (A) (A) (A) (A)
                 (A) (A) (A) (A) (A) (A) (A) (A) (A) (A) (A) (A)
                 (A) (A) (A) (A) (A) (A) (A) (A) (A) (A) (A) (A)
                 (A) (A) (A) (A) (A) (A) (A) (A) (A) (A) (A) (A)
                 (A) (A) (A) (A) (A) (A) (A) (A) (A) (A) (A) (A)
                 (A) (A) (A) (A) (A) (A) (A) (A) (A) (A) (A) (A)
                 (A) (A) (A) (A) (A) (A) (A) (A) (A) (A) (A) (A)
                 (A) (A) (A) (A) (A) (A) (A) (A) (A) (A) (A) (A)
                 (A) (A) (A) (A) (A) (A) (A) (A) (A) (A) (A) (A)
                 (A) (A) (A) (A) (A) (A) (A) (A) (A) (A) (A) (A)
                 (A) (A) (A) (A) (A) (A) (A) (A) (A) (A) (A) (A)
                 (A) (A) (A) (A) (A) (A) (A) (A) (A) (A) (A) (A)
                 (A) (A) (A) (A) (A) (A) (A) (A) (A) (A) (A) (A)
                 (A) (A) (A) (A) (A) (A) (A) (A) (A) (A) (A) (A)
                 (A) (A) (A) (A) (A) (A) (A) (A) (A) (A) (A) (A)
                 (A) (A) (A) (A) (A) (A) (A) (A) (A) (A) (A) (A)
                 (A) (A) (A) (A) (A) (A) (A) (A) (A) (A) (A) (A)
                 (A) (A) (A) (A) (A) (A) (A) (A) (A) (A) (A) (A)
                 (A) (A) (A) (A) (A) (A) (A) (A) (A) (A) (A) (A)
                 (A) (A) (A) (A) (A) (A) (A) (A) (A) (A) (A) (A)
                 (A) (A) (A) (A) (A) (A) (A) (A) (A) (A)
 The electronic state is 1-A.
 Alpha  occ. eigenvalues -- -482.95450-235.70868 -62.53491 -56.34054 -56.34042
 Alpha  occ. eigenvalues --  -56.34037 -27.47536 -23.53468 -23.53109 -23.53047
 Alpha  occ. eigenvalues --  -19.34579 -19.34549 -19.34480 -14.50816 -14.50808
 Alpha  occ. eigenvalues --  -14.46642 -10.42153 -10.42149 -10.42107 -10.37155
 Alpha  occ. eigenvalues --  -10.37146 -10.36612 -10.36597 -10.36290 -10.35591
 Alpha  occ. eigenvalues --  -10.34657 -10.34642 -10.34559 -10.34550 -10.33579
 Alpha  occ. eigenvalues --  -10.33563 -10.33446 -10.33343 -10.33330 -10.33279
 Alpha  occ. eigenvalues --  -10.33273 -10.33252 -10.32880 -10.32874 -10.32638
 Alpha  occ. eigenvalues --  -10.32390 -10.32331 -10.32322 -10.32278 -10.32115
 Alpha  occ. eigenvalues --  -10.32032 -10.32002 -10.31995 -10.31849 -10.31845
 Alpha  occ. eigenvalues --   -8.70244  -6.51946  -6.51911  -6.51893  -3.26993
 Alpha  occ. eigenvalues --   -2.62450  -2.62444  -2.62430  -2.62402  -2.62400
 Alpha  occ. eigenvalues --   -2.12858  -2.11933  -2.11838  -1.23595  -1.23522
 Alpha  occ. eigenvalues --   -1.23338  -1.08601  -1.08292  -1.02155  -1.00303
 Alpha  occ. eigenvalues --   -0.97878  -0.97631  -0.94480  -0.93281  -0.91392
 Alpha  occ. eigenvalues --   -0.90866  -0.89860  -0.88166  -0.87492  -0.86416
 Alpha  occ. eigenvalues --   -0.85280  -0.85010  -0.81928  -0.76800  -0.75890
 Alpha  occ. eigenvalues --   -0.75416  -0.75397  -0.74764  -0.74595  -0.74404
 Alpha  occ. eigenvalues --   -0.72311  -0.72001  -0.70290  -0.69012  -0.68211
 Alpha  occ. eigenvalues --   -0.65748  -0.65264  -0.65173  -0.64939  -0.64543
 Alpha  occ. eigenvalues --   -0.64525  -0.62674  -0.62128  -0.61074  -0.60185
 Alpha  occ. eigenvalues --   -0.59149  -0.58430  -0.57661  -0.57535  -0.57259
 Alpha  occ. eigenvalues --   -0.56934  -0.56634  -0.56504  -0.56108  -0.55969
 Alpha  occ. eigenvalues --   -0.55729  -0.55289  -0.54924  -0.54846  -0.54461
 Alpha  occ. eigenvalues --   -0.54383  -0.54049  -0.53365  -0.52994  -0.52542
 Alpha  occ. eigenvalues --   -0.52477  -0.52469  -0.51995  -0.51303  -0.51259
 Alpha  occ. eigenvalues --   -0.51137  -0.51126  -0.50557  -0.49464  -0.49101
 Alpha  occ. eigenvalues --   -0.48548  -0.47988  -0.47408  -0.47317  -0.46044
 Alpha  occ. eigenvalues --   -0.45766  -0.45145  -0.44922  -0.43753  -0.43718
 Alpha  occ. eigenvalues --   -0.43386  -0.42442  -0.41857  -0.41242  -0.40727
 Alpha  occ. eigenvalues --   -0.40365  -0.39660  -0.37837  -0.36581  -0.35653
 Alpha  occ. eigenvalues --   -0.35161  -0.33664  -0.33579  -0.33351  -0.33256
 Alpha  occ. eigenvalues --   -0.32218  -0.29676  -0.29549  -0.29260  -0.28006
 Alpha virt. eigenvalues --   -0.03076  -0.00631  -0.00228   0.00665   0.00885
 Alpha virt. eigenvalues --    0.01822   0.01972   0.02429   0.03948   0.04362
 Alpha virt. eigenvalues --    0.04411   0.06215   0.06763   0.06933   0.08994
 Alpha virt. eigenvalues --    0.09086   0.09320   0.09653   0.10278   0.10457
 Alpha virt. eigenvalues --    0.11514   0.12856   0.13149   0.13653   0.14140
 Alpha virt. eigenvalues --    0.14328   0.14515   0.15208   0.15299   0.15869
 Alpha virt. eigenvalues --    0.15969   0.16678   0.17421   0.17928   0.18748
 Alpha virt. eigenvalues --    0.18765   0.19435   0.19561   0.19965   0.20426
 Alpha virt. eigenvalues --    0.20692   0.21554   0.21948   0.22204   0.22549
 Alpha virt. eigenvalues --    0.22633   0.23076   0.23348   0.23566   0.24793
 Alpha virt. eigenvalues --    0.25805   0.26055   0.26284   0.27058   0.27633
 Alpha virt. eigenvalues --    0.28224   0.29140   0.29835   0.29958   0.30304
 Alpha virt. eigenvalues --    0.30590   0.31065   0.31321   0.31845   0.32138
 Alpha virt. eigenvalues --    0.32258   0.32387   0.32952   0.33573   0.33858
 Alpha virt. eigenvalues --    0.34153   0.34551   0.34959   0.35259   0.35505
 Alpha virt. eigenvalues --    0.35740   0.35879   0.36107   0.36534   0.36617
 Alpha virt. eigenvalues --    0.37667   0.37774   0.38516   0.38708   0.39173
 Alpha virt. eigenvalues --    0.39992   0.40344   0.41294   0.41500   0.42061
 Alpha virt. eigenvalues --    0.42085   0.42416   0.42830   0.44052   0.44123
 Alpha virt. eigenvalues --    0.44658   0.45434   0.45902   0.46661   0.47142
 Alpha virt. eigenvalues --    0.47615   0.47851   0.48131   0.48198   0.48660
 Alpha virt. eigenvalues --    0.49957   0.50343   0.50642   0.50978   0.51237
 Alpha virt. eigenvalues --    0.51387   0.51829   0.52338   0.52571   0.52721
 Alpha virt. eigenvalues --    0.52929   0.53258   0.53613   0.54217   0.54538
 Alpha virt. eigenvalues --    0.54715   0.54938   0.55107   0.55695   0.56045
 Alpha virt. eigenvalues --    0.56169   0.56612   0.57290   0.57442   0.57611
 Alpha virt. eigenvalues --    0.58117   0.58841   0.59166   0.60149   0.60188
 Alpha virt. eigenvalues --    0.60481   0.60537   0.61090   0.61536   0.61562
 Alpha virt. eigenvalues --    0.61655   0.63252   0.63679   0.64164   0.64797
 Alpha virt. eigenvalues --    0.64870   0.65512   0.65575   0.66391   0.66852
 Alpha virt. eigenvalues --    0.67113   0.67512   0.67782   0.67969   0.68594
 Alpha virt. eigenvalues --    0.68665   0.69960   0.70448   0.70463   0.70837
 Alpha virt. eigenvalues --    0.71289   0.71714   0.71841   0.71962   0.72437
 Alpha virt. eigenvalues --    0.72724   0.72906   0.73016   0.73390   0.73444
 Alpha virt. eigenvalues --    0.73851   0.74055   0.74407   0.74728   0.74774
 Alpha virt. eigenvalues --    0.75331   0.75492   0.75676   0.75864   0.76425
 Alpha virt. eigenvalues --    0.76803   0.77012   0.77094   0.77677   0.78345
 Alpha virt. eigenvalues --    0.78428   0.78798   0.79081   0.79464   0.79631
 Alpha virt. eigenvalues --    0.80318   0.80483   0.80641   0.81157   0.81562
 Alpha virt. eigenvalues --    0.81687   0.81748   0.82534   0.82826   0.83703
 Alpha virt. eigenvalues --    0.83883   0.83944   0.84179   0.84541   0.84952
 Alpha virt. eigenvalues --    0.85264   0.85470   0.85590   0.86366   0.86932
 Alpha virt. eigenvalues --    0.86981   0.87336   0.87585   0.87834   0.88091
 Alpha virt. eigenvalues --    0.88432   0.89182   0.89271   0.90109   0.90253
 Alpha virt. eigenvalues --    0.90398   0.91416   0.91567   0.91687   0.92314
 Alpha virt. eigenvalues --    0.93825   0.94113   0.94329   0.94615   0.95171
 Alpha virt. eigenvalues --    0.95551   0.95790   0.96400   0.96945   0.97916
 Alpha virt. eigenvalues --    0.98167   0.98771   0.99050   0.99928   1.01484
 Alpha virt. eigenvalues --    1.01650   1.02258   1.03322   1.04783   1.04870
 Alpha virt. eigenvalues --    1.06583   1.07488   1.08880   1.09256   1.09530
 Alpha virt. eigenvalues --    1.10998   1.11360   1.13139   1.13664   1.14650
 Alpha virt. eigenvalues --    1.14825   1.15072   1.15866   1.16046   1.16211
 Alpha virt. eigenvalues --    1.16940   1.17831   1.18102   1.20812   1.21678
 Alpha virt. eigenvalues --    1.22020   1.22399   1.22964   1.24406   1.24561
 Alpha virt. eigenvalues --    1.24945   1.25173   1.25643   1.26220   1.26293
 Alpha virt. eigenvalues --    1.27537   1.27952   1.28437   1.28486   1.29548
 Alpha virt. eigenvalues --    1.29717   1.30257   1.30695   1.30740   1.30906
 Alpha virt. eigenvalues --    1.31492   1.32315   1.33092   1.33687   1.33904
 Alpha virt. eigenvalues --    1.34207   1.34448   1.34788   1.35320   1.35557
 Alpha virt. eigenvalues --    1.35871   1.35894   1.36200   1.37547   1.37660
 Alpha virt. eigenvalues --    1.38224   1.38353   1.38528   1.40217   1.40708
 Alpha virt. eigenvalues --    1.41966   1.42184   1.43184   1.43370   1.44535
 Alpha virt. eigenvalues --    1.45456   1.46746   1.48077   1.48175   1.49403
 Alpha virt. eigenvalues --    1.50470   1.54890   1.55601   1.55679   1.58904
 Alpha virt. eigenvalues --    1.59143   1.59885   1.62371   1.63631   1.64308
 Alpha virt. eigenvalues --    1.64907   1.65579   1.66559   1.67562   1.67773
 Alpha virt. eigenvalues --    1.68765   1.69730   1.70941   1.71703   1.72026
 Alpha virt. eigenvalues --    1.72838   1.73013   1.73258   1.73684   1.73806
 Alpha virt. eigenvalues --    1.74428   1.74744   1.75046   1.75481   1.76003
 Alpha virt. eigenvalues --    1.77226   1.77266   1.78099   1.78469   1.78660
 Alpha virt. eigenvalues --    1.78734   1.79400   1.79548   1.79943   1.80022
 Alpha virt. eigenvalues --    1.80389   1.80907   1.81462   1.81627   1.81806
 Alpha virt. eigenvalues --    1.81933   1.82092   1.82234   1.82644   1.82947
 Alpha virt. eigenvalues --    1.83416   1.84105   1.84305   1.84701   1.84877
 Alpha virt. eigenvalues --    1.85666   1.86099   1.86401   1.87097   1.87406
 Alpha virt. eigenvalues --    1.87653   1.87872   1.88296   1.89699   1.89768
 Alpha virt. eigenvalues --    1.90380   1.90390   1.91078   1.91254   1.91853
 Alpha virt. eigenvalues --    1.93363   1.94161   1.94321   1.95549   1.96082
 Alpha virt. eigenvalues --    1.96776   1.97088   1.97575   1.98314   1.99282
 Alpha virt. eigenvalues --    1.99393   2.00592   2.01152   2.01431   2.02199
 Alpha virt. eigenvalues --    2.02567   2.02833   2.03216   2.03867   2.04510
 Alpha virt. eigenvalues --    2.04823   2.04995   2.05423   2.05737   2.06135
 Alpha virt. eigenvalues --    2.06933   2.07932   2.09214   2.10064   2.10351
 Alpha virt. eigenvalues --    2.10929   2.11070   2.11847   2.12283   2.13924
 Alpha virt. eigenvalues --    2.14629   2.15516   2.15827   2.16621   2.16714
 Alpha virt. eigenvalues --    2.16847   2.17880   2.18162   2.18592   2.19588
 Alpha virt. eigenvalues --    2.20334   2.20568   2.20888   2.21319   2.21566
 Alpha virt. eigenvalues --    2.23280   2.23575   2.24383   2.24516   2.25804
 Alpha virt. eigenvalues --    2.26114   2.29375   2.29967   2.30736   2.31367
 Alpha virt. eigenvalues --    2.31465   2.31667   2.32815   2.33451   2.34417
 Alpha virt. eigenvalues --    2.34998   2.35841   2.36062   2.36679   2.37392
 Alpha virt. eigenvalues --    2.37640   2.37772   2.38133   2.38455   2.38836
 Alpha virt. eigenvalues --    2.39565   2.39698   2.41342   2.41779   2.42684
 Alpha virt. eigenvalues --    2.44070   2.45206   2.45228   2.46164   2.46723
 Alpha virt. eigenvalues --    2.47509   2.48029   2.49901   2.49976   2.50721
 Alpha virt. eigenvalues --    2.53627   2.54881   2.56236   2.57333   2.59230
 Alpha virt. eigenvalues --    2.60221   2.60990   2.61535   2.63768   2.64676
 Alpha virt. eigenvalues --    2.65771   2.65964   2.66727   2.67003   2.67569
 Alpha virt. eigenvalues --    2.67639   2.68240   2.69480   2.69821   2.69877
 Alpha virt. eigenvalues --    2.70036   2.70324   2.70408   2.70880   2.71112
 Alpha virt. eigenvalues --    2.72106   2.72445   2.72721   2.74322   2.74770
 Alpha virt. eigenvalues --    2.75737   2.77000   2.79231   2.79454   2.80058
 Alpha virt. eigenvalues --    2.80124   2.80337   2.80466   2.81824   2.82261
 Alpha virt. eigenvalues --    2.84526   2.85249   2.85777   2.86412   2.87058
 Alpha virt. eigenvalues --    2.87178   2.89628   2.91418   2.91873   2.94574
 Alpha virt. eigenvalues --    2.95897   2.97864   2.98469   2.99080   3.01341
 Alpha virt. eigenvalues --    3.02742   3.05012   3.05838   3.06159   3.07096
 Alpha virt. eigenvalues --    3.08634   3.09703   3.10251   3.11774   3.12513
 Alpha virt. eigenvalues --    3.15831   3.16231   3.19168   3.19723   3.20318
 Alpha virt. eigenvalues --    3.20731   3.20962   3.21892   3.22245   3.24163
 Alpha virt. eigenvalues --    3.24722   3.29757   3.29915   3.32662   3.32888
 Alpha virt. eigenvalues --    3.38115   3.39038   3.41616   3.45670   3.45952
 Alpha virt. eigenvalues --    3.47220   3.50718   3.52353   3.55487   3.58476
 Alpha virt. eigenvalues --    3.60568   3.62393   3.63151   3.63233   3.63510
 Alpha virt. eigenvalues --    3.63826   3.65785   3.66480   3.71965   3.72713
 Alpha virt. eigenvalues --    3.75731   3.75935   3.76575   3.78847   3.79450
 Alpha virt. eigenvalues --    3.82130   3.85097   3.92417   3.95062   4.02492
 Alpha virt. eigenvalues --    4.08528
 Electronic spatial extent (au):  <R**2>=          25433.5959
 Charge=             -0.0000 electrons
 Dipole moment (field-independent basis, Debye):
    X=             19.7657    Y=             14.4254    Z=              0.2459  Tot=             24.4711
 Quadrupole moment (field-independent basis, Debye-Ang):
   XX=           -308.1999   YY=           -250.2934   ZZ=           -219.8937
   XY=            -55.8833   XZ=             -1.6748   YZ=             -1.4348
 Traceless Quadrupole moment (field-independent basis, Debye-Ang):
   XX=            -48.7375   YY=              9.1689   ZZ=             39.5687
   XY=            -55.8833   XZ=             -1.6748   YZ=             -1.4348
 Octapole moment (field-independent basis, Debye-Ang**2):
  XXX=            512.4547  YYY=            116.1057  ZZZ=              1.9761  XYY=           -130.6896
  XXY=            290.7017  XXZ=             12.2608  XZZ=             49.7722  YZZ=             10.7667
  YYZ=             -2.9587  XYZ=            -10.4956
 Hexadecapole moment (field-independent basis, Debye-Ang**3):
 XXXX=         -19177.7561 YYYY=          -7166.2260 ZZZZ=          -5533.8328 XXXY=          -1221.8785
 XXXZ=            -63.8969 YYYX=           -623.4103 YYYZ=             13.5597 ZZZX=             11.9145
 ZZZY=            -32.1637 XXYY=          -4544.7689 XXZZ=          -3815.2784 YYZZ=          -2544.3266
 XXYZ=             17.9184 YYXZ=            -30.3764 ZZXY=            133.4893
 N-N= 5.860122913675D+03 E-N=-2.454764763733D+04  KE= 5.399270149880D+03
 D1PCM: PCM CHGder 1st derivatives, ID1Alg=3 FixD1E=F DoIter=F DoCFld=F I1PDM=0.
 Calling FoFJK, ICntrl=      2127 FMM=T ISym2X=0 I1Cent= 0 IOpClX= 0 NMat=1 NMatS=1 NMatT=0.
 ***** Axes restored to original set *****
 -------------------------------------------------------------------
 Center     Atomic                   Forces (Hartrees/Bohr)
 Number     Number              X              Y              Z
 -------------------------------------------------------------------
      1       25          -0.000069272   -0.000052126    0.000093097
      2        6           0.000022177   -0.000027550   -0.000009675
      3        8          -0.000005411    0.000010473    0.000001465
      4        6           0.000017279   -0.000074085   -0.000028841
      5        8           0.000006416   -0.000009920    0.000002897
      6        6           0.000002535   -0.000038390   -0.000036123
      7        7          -0.000124370    0.000016396   -0.000080423
      8        6          -0.000008846   -0.000051620    0.000035744
      9        6           0.000002546    0.000004725    0.000017345
     10        6           0.000036115   -0.000002138   -0.000013848
     11        1          -0.000015407    0.000020593   -0.000017850
     12        1           0.000000710    0.000002481   -0.000000587
     13        7           0.000207860    0.000076070   -0.000057246
     14        6          -0.000094166    0.000023450    0.000102294
     15        6          -0.000048513   -0.000009359   -0.000038539
     16        6          -0.000035925    0.000003290   -0.000015638
     17        6          -0.000006396   -0.000016360    0.000001495
     18        6          -0.000182895    0.000091236    0.000097574
     19        1           0.000004430   -0.000014526   -0.000004689
     20        1           0.000230900   -0.000085181   -0.000099877
     21        7          -0.000047155    0.000024937   -0.000003253
     22        6           0.000000101   -0.000030643   -0.000011615
     23        6           0.000002585    0.000011256   -0.000004910
     24        1          -0.000045335   -0.000015163    0.000039886
     25        6          -0.000004595   -0.000013924   -0.000008780
     26        1          -0.000005334   -0.000008076   -0.000001755
     27        6           0.000029726    0.000015596    0.000004815
     28        1           0.000008116   -0.000003850   -0.000008549
     29        1          -0.000005975   -0.000000782    0.000001653
     30        8           0.000003263    0.000020435    0.000013486
     31        6           0.000047129    0.000002390    0.000119458
     32        6           0.000018374    0.000023153   -0.000046580
     33        6           0.000012300    0.000024136    0.000022744
     34        6           0.000026271    0.000013230   -0.000030190
     35        6          -0.000009201    0.000006766   -0.000004740
     36        6           0.000000145    0.000004838    0.000008814
     37        6           0.000009118    0.000005486   -0.000007597
     38        6          -0.000018021    0.000001241    0.000024993
     39        6          -0.000023014    0.000021048   -0.000036977
     40        1          -0.000000261    0.000002774    0.000002275
     41        1           0.000004237    0.000004885    0.000003722
     42        1           0.000003466    0.000005517   -0.000002184
     43        6           0.000004146   -0.000006051    0.000029756
     44        6           0.000008428    0.000004560   -0.000000320
     45        6           0.000002158    0.000003759   -0.000004743
     46        6          -0.000005017    0.000005066    0.000000270
     47        6           0.000001236    0.000002397    0.000009851
     48        6           0.000006429    0.000009100   -0.000030844
     49        1          -0.000003605    0.000005579   -0.000000002
     50        1           0.000000599    0.000006543    0.000000315
     51        1          -0.000004588    0.000003553   -0.000002556
     52        6          -0.000003100   -0.000010099   -0.000015912
     53        1           0.000001340    0.000002728   -0.000003309
     54        6          -0.000000803   -0.000022321   -0.000004503
     55        1           0.000002871    0.000000986   -0.000005795
     56        1          -0.000002574    0.000003248    0.000002953
     57        6          -0.000004168   -0.000006185    0.000003667
     58        6           0.000001075    0.000011234    0.000000564
     59        1          -0.000003390   -0.000008615    0.000001627
     60        1          -0.000005118   -0.000007504   -0.000001921
     61       35           0.000002559    0.000024894    0.000010429
     62        1           0.000050943    0.000002712   -0.000022673
     63        1           0.000004874   -0.000008293    0.000009858
 -------------------------------------------------------------------
 Cartesian Forces:  Max     0.000230900 RMS     0.000039895
 NDeriv=    189 NFrqRd=  0 NDerD0=      0 MskFDP=       0 MskDFD=       0 MskDF0=       0
 At 1st pt F.D. properties file   721 does not exist.
 At 1st pt F.D. properties file   722 does not exist.
 D2Numr ... symmetry will be used.
 Basis read from rwf:  (5D, 7F)
   751 basis functions,  1339 primitive gaussians,   802 cartesian basis functions
   165 alpha electrons      165 beta electrons
       nuclear repulsion energy      5860.2022243598 Hartrees.
 NAtoms=   63 NActive=   63 NUniq=   63 SFac= 1.00D+00 NAtFMM=   60 NAOKFM=T Big=T
 Integral buffers will be    131072 words long.
 Raffenetti 2 integral format.
 Two-electron integral symmetry is turned off.
 Nuclear repulsion after empirical dispersion term =     5860.1391548509 Hartrees.
 ------------------------------------------------------------------------------
 Polarizable Continuum Model (PCM)
 =================================
 Model                : PCM.
 Atomic radii         : UFF (Universal Force Field).
 Polarization charges : Total charges.
 Charge compensation  : None.
 Solution method      : On-the-fly selection.
 Cavity type          : Scaled VdW (van der Waals Surface) (Alpha=1.100).
 Cavity algorithm     : GePol (No added spheres)
                        Default sphere list used, NSphG=   63.
                        Lebedev-Laikov grids with approx.  5.0 points / Ang**2.
                        Smoothing algorithm: York/Karplus (Gamma=1.0000).
                        Polarization charges: spherical gaussians, with
                                              point-specific exponents (IZeta= 3).
                        Self-potential: point-specific (ISelfS= 7).
                        Self-field    : sphere-specific E.n sum rule (ISelfD= 2).
 1st derivatives      : Analytical E(r).r(x)/FMM algorithm (CHGder, D1EAlg=3).
                        Cavity 1st derivative terms included.
 Solvent              : TetraHydroFuran, Eps=   7.425700 Eps(inf)=   1.974025
 ------------------------------------------------------------------------------
 One-electron integrals computed using PRISM.
 NBasis=   751 RedAO= T EigKep=  2.24D-04  NBF=   751
 NBsUse=   751 1.00D-06 EigRej= -1.00D+00 NBFU=   751
 Initial guess from the checkpoint file:  "checkpoint.chk"
 B after Tr=     0.000143   -0.000000   -0.000000
         Rot=    1.000000   -0.000000    0.000000   -0.000004 Ang=   0.00 deg.
 Requested convergence on RMS density matrix=1.00D-08 within 128 cycles.
 Requested convergence on MAX density matrix=1.00D-06.
 Requested convergence on             energy=1.00D-06.
 No special actions if energy rises.
 Inv3:  Mode=1 IEnd=    73864332.
 Iteration    1 A*A^-1 deviation from unit magnitude is 3.11D-15 for    750.
 Iteration    1 A*A^-1 deviation from orthogonality  is 2.22D-15 for   3102    721.
 Iteration    1 A^-1*A deviation from unit magnitude is 3.77D-15 for    750.
 Iteration    1 A^-1*A deviation from orthogonality  is 2.00D-15 for   3235    525.
 Error on total polarization charges =  0.02143
 SCF Done:  E(RwB97XD) =  -5421.44460032     A.U. after   11 cycles
            NFock= 11  Conv=0.21D-08     -V/T= 2.0041

 **********************************************************************

            Population analysis using the SCF density.

 **********************************************************************

 Alpha  occ. eigenvalues -- -482.95451-235.70867 -62.53492 -56.34055 -56.34042
 Alpha  occ. eigenvalues --  -56.34038 -27.47535 -23.53467 -23.53107 -23.53046
 Alpha  occ. eigenvalues --  -19.34586 -19.34556 -19.34466 -14.50817 -14.50810
 Alpha  occ. eigenvalues --  -14.46641 -10.42160 -10.42156 -10.42093 -10.37155
 Alpha  occ. eigenvalues --  -10.37146 -10.36613 -10.36598 -10.36290 -10.35591
 Alpha  occ. eigenvalues --  -10.34658 -10.34642 -10.34560 -10.34551 -10.33579
 Alpha  occ. eigenvalues --  -10.33563 -10.33446 -10.33343 -10.33330 -10.33279
 Alpha  occ. eigenvalues --  -10.33273 -10.33252 -10.32880 -10.32874 -10.32638
 Alpha  occ. eigenvalues --  -10.32390 -10.32331 -10.32322 -10.32278 -10.32115
 Alpha  occ. eigenvalues --  -10.32032 -10.32002 -10.31995 -10.31849 -10.31845
 Alpha  occ. eigenvalues --   -8.70244  -6.51946  -6.51911  -6.51894  -3.26992
 Alpha  occ. eigenvalues --   -2.62451  -2.62445  -2.62430  -2.62402  -2.62401
 Alpha  occ. eigenvalues --   -2.12860  -2.11930  -2.11837  -1.23600  -1.23527
 Alpha  occ. eigenvalues --   -1.23327  -1.08602  -1.08294  -1.02155  -1.00303
 Alpha  occ. eigenvalues --   -0.97878  -0.97632  -0.94480  -0.93281  -0.91392
 Alpha  occ. eigenvalues --   -0.90867  -0.89861  -0.88166  -0.87493  -0.86416
 Alpha  occ. eigenvalues --   -0.85280  -0.85010  -0.81928  -0.76800  -0.75891
 Alpha  occ. eigenvalues --   -0.75417  -0.75397  -0.74764  -0.74596  -0.74404
 Alpha  occ. eigenvalues --   -0.72311  -0.72001  -0.70290  -0.69013  -0.68210
 Alpha  occ. eigenvalues --   -0.65748  -0.65268  -0.65170  -0.64939  -0.64543
 Alpha  occ. eigenvalues --   -0.64526  -0.62674  -0.62128  -0.61075  -0.60186
 Alpha  occ. eigenvalues --   -0.59149  -0.58430  -0.57661  -0.57535  -0.57259
 Alpha  occ. eigenvalues --   -0.56931  -0.56636  -0.56504  -0.56108  -0.55969
 Alpha  occ. eigenvalues --   -0.55727  -0.55293  -0.54925  -0.54846  -0.54460
 Alpha  occ. eigenvalues --   -0.54383  -0.54049  -0.53366  -0.52994  -0.52542
 Alpha  occ. eigenvalues --   -0.52477  -0.52470  -0.51997  -0.51303  -0.51259
 Alpha  occ. eigenvalues --   -0.51136  -0.51125  -0.50556  -0.49464  -0.49101
 Alpha  occ. eigenvalues --   -0.48548  -0.47988  -0.47408  -0.47317  -0.46044
 Alpha  occ. eigenvalues --   -0.45766  -0.45145  -0.44923  -0.43754  -0.43719
 Alpha  occ. eigenvalues --   -0.43387  -0.42443  -0.41860  -0.41244  -0.40728
 Alpha  occ. eigenvalues --   -0.40366  -0.39660  -0.37837  -0.36581  -0.35653
 Alpha  occ. eigenvalues --   -0.35161  -0.33665  -0.33579  -0.33351  -0.33255
 Alpha  occ. eigenvalues --   -0.32213  -0.29676  -0.29550  -0.29261  -0.28006
 Alpha virt. eigenvalues --   -0.03076  -0.00635  -0.00228   0.00664   0.00885
 Alpha virt. eigenvalues --    0.01821   0.01972   0.02429   0.03948   0.04374
 Alpha virt. eigenvalues --    0.04414   0.06213   0.06763   0.06931   0.08992
 Alpha virt. eigenvalues --    0.09085   0.09320   0.09653   0.10281   0.10456
 Alpha virt. eigenvalues --    0.11514   0.12856   0.13149   0.13653   0.14140
 Alpha virt. eigenvalues --    0.14329   0.14515   0.15208   0.15300   0.15869
 Alpha virt. eigenvalues --    0.15969   0.16678   0.17421   0.17928   0.18748
 Alpha virt. eigenvalues --    0.18765   0.19434   0.19561   0.19965   0.20426
 Alpha virt. eigenvalues --    0.20692   0.21554   0.21947   0.22204   0.22549
 Alpha virt. eigenvalues --    0.22633   0.23076   0.23348   0.23566   0.24793
 Alpha virt. eigenvalues --    0.25805   0.26055   0.26284   0.27058   0.27633
 Alpha virt. eigenvalues --    0.28223   0.29140   0.29835   0.29958   0.30304
 Alpha virt. eigenvalues --    0.30590   0.31066   0.31320   0.31845   0.32137
 Alpha virt. eigenvalues --    0.32259   0.32387   0.32951   0.33573   0.33858
 Alpha virt. eigenvalues --    0.34152   0.34550   0.34959   0.35259   0.35505
 Alpha virt. eigenvalues --    0.35738   0.35879   0.36106   0.36535   0.36617
 Alpha virt. eigenvalues --    0.37667   0.37773   0.38515   0.38708   0.39173
 Alpha virt. eigenvalues --    0.39992   0.40344   0.41296   0.41499   0.42061
 Alpha virt. eigenvalues --    0.42084   0.42415   0.42829   0.44052   0.44123
 Alpha virt. eigenvalues --    0.44659   0.45433   0.45902   0.46660   0.47142
 Alpha virt. eigenvalues --    0.47614   0.47851   0.48131   0.48200   0.48660
 Alpha virt. eigenvalues --    0.49956   0.50341   0.50641   0.50979   0.51236
 Alpha virt. eigenvalues --    0.51387   0.51831   0.52338   0.52571   0.52720
 Alpha virt. eigenvalues --    0.52929   0.53259   0.53614   0.54216   0.54536
 Alpha virt. eigenvalues --    0.54714   0.54939   0.55108   0.55695   0.56046
 Alpha virt. eigenvalues --    0.56169   0.56612   0.57289   0.57443   0.57610
 Alpha virt. eigenvalues --    0.58117   0.58846   0.59168   0.60147   0.60187
 Alpha virt. eigenvalues --    0.60480   0.60536   0.61092   0.61536   0.61563
 Alpha virt. eigenvalues --    0.61656   0.63252   0.63679   0.64163   0.64798
 Alpha virt. eigenvalues --    0.64870   0.65512   0.65578   0.66392   0.66853
 Alpha virt. eigenvalues --    0.67113   0.67512   0.67781   0.67969   0.68594
 Alpha virt. eigenvalues --    0.68667   0.69962   0.70449   0.70463   0.70836
 Alpha virt. eigenvalues --    0.71288   0.71713   0.71841   0.71962   0.72437
 Alpha virt. eigenvalues --    0.72725   0.72906   0.73015   0.73390   0.73444
 Alpha virt. eigenvalues --    0.73850   0.74055   0.74408   0.74728   0.74774
 Alpha virt. eigenvalues --    0.75330   0.75492   0.75675   0.75863   0.76425
 Alpha virt. eigenvalues --    0.76802   0.77012   0.77094   0.77677   0.78345
 Alpha virt. eigenvalues --    0.78429   0.78799   0.79082   0.79462   0.79631
 Alpha virt. eigenvalues --    0.80318   0.80482   0.80640   0.81160   0.81563
 Alpha virt. eigenvalues --    0.81687   0.81747   0.82535   0.82826   0.83703
 Alpha virt. eigenvalues --    0.83882   0.83944   0.84180   0.84539   0.84954
 Alpha virt. eigenvalues --    0.85263   0.85470   0.85589   0.86367   0.86931
 Alpha virt. eigenvalues --    0.86980   0.87335   0.87585   0.87835   0.88093
 Alpha virt. eigenvalues --    0.88431   0.89180   0.89268   0.90109   0.90253
 Alpha virt. eigenvalues --    0.90398   0.91417   0.91565   0.91687   0.92315
 Alpha virt. eigenvalues --    0.93825   0.94114   0.94329   0.94615   0.95171
 Alpha virt. eigenvalues --    0.95551   0.95790   0.96399   0.96945   0.97916
 Alpha virt. eigenvalues --    0.98167   0.98769   0.99048   0.99928   1.01484
 Alpha virt. eigenvalues --    1.01654   1.02259   1.03321   1.04783   1.04872
 Alpha virt. eigenvalues --    1.06582   1.07488   1.08879   1.09260   1.09529
 Alpha virt. eigenvalues --    1.10989   1.11355   1.13126   1.13664   1.14654
 Alpha virt. eigenvalues --    1.14829   1.15076   1.15865   1.16045   1.16211
 Alpha virt. eigenvalues --    1.16943   1.17828   1.18107   1.20816   1.21679
 Alpha virt. eigenvalues --    1.22018   1.22397   1.22965   1.24406   1.24562
 Alpha virt. eigenvalues --    1.24949   1.25172   1.25641   1.26221   1.26292
 Alpha virt. eigenvalues --    1.27537   1.27953   1.28438   1.28484   1.29549
 Alpha virt. eigenvalues --    1.29717   1.30258   1.30695   1.30740   1.30905
 Alpha virt. eigenvalues --    1.31492   1.32315   1.33094   1.33687   1.33904
 Alpha virt. eigenvalues --    1.34206   1.34449   1.34789   1.35322   1.35559
 Alpha virt. eigenvalues --    1.35872   1.35895   1.36200   1.37542   1.37658
 Alpha virt. eigenvalues --    1.38234   1.38359   1.38537   1.40217   1.40712
 Alpha virt. eigenvalues --    1.41966   1.42186   1.43184   1.43371   1.44535
 Alpha virt. eigenvalues --    1.45457   1.46745   1.48076   1.48175   1.49399
 Alpha virt. eigenvalues --    1.50471   1.54880   1.55598   1.55682   1.58903
 Alpha virt. eigenvalues --    1.59143   1.59885   1.62357   1.63631   1.64284
 Alpha virt. eigenvalues --    1.64906   1.65581   1.66558   1.67564   1.67775
 Alpha virt. eigenvalues --    1.68764   1.69731   1.70940   1.71705   1.72025
 Alpha virt. eigenvalues --    1.72840   1.73013   1.73257   1.73684   1.73809
 Alpha virt. eigenvalues --    1.74428   1.74746   1.75045   1.75481   1.75990
 Alpha virt. eigenvalues --    1.77227   1.77266   1.78114   1.78469   1.78661
 Alpha virt. eigenvalues --    1.78734   1.79399   1.79548   1.79942   1.80019
 Alpha virt. eigenvalues --    1.80389   1.80906   1.81462   1.81627   1.81805
 Alpha virt. eigenvalues --    1.81934   1.82092   1.82234   1.82643   1.82947
 Alpha virt. eigenvalues --    1.83415   1.84107   1.84305   1.84700   1.84876
 Alpha virt. eigenvalues --    1.85667   1.86098   1.86402   1.87098   1.87406
 Alpha virt. eigenvalues --    1.87656   1.87873   1.88301   1.89695   1.89768
 Alpha virt. eigenvalues --    1.90380   1.90390   1.91079   1.91261   1.91854
 Alpha virt. eigenvalues --    1.93364   1.94162   1.94325   1.95547   1.96078
 Alpha virt. eigenvalues --    1.96780   1.97087   1.97575   1.98314   1.99283
 Alpha virt. eigenvalues --    1.99393   2.00591   2.01153   2.01431   2.02198
 Alpha virt. eigenvalues --    2.02567   2.02833   2.03215   2.03867   2.04510
 Alpha virt. eigenvalues --    2.04825   2.04994   2.05423   2.05740   2.06138
 Alpha virt. eigenvalues --    2.06935   2.07933   2.09218   2.10063   2.10353
 Alpha virt. eigenvalues --    2.10930   2.11074   2.11848   2.12284   2.13924
 Alpha virt. eigenvalues --    2.14631   2.15517   2.15827   2.16618   2.16713
 Alpha virt. eigenvalues --    2.16846   2.17881   2.18169   2.18592   2.19594
 Alpha virt. eigenvalues --    2.20344   2.20568   2.20892   2.21319   2.21574
 Alpha virt. eigenvalues --    2.23285   2.23575   2.24383   2.24516   2.25804
 Alpha virt. eigenvalues --    2.26114   2.29376   2.29969   2.30736   2.31368
 Alpha virt. eigenvalues --    2.31465   2.31667   2.32816   2.33453   2.34417
 Alpha virt. eigenvalues --    2.34998   2.35844   2.36062   2.36681   2.37392
 Alpha virt. eigenvalues --    2.37641   2.37772   2.38134   2.38455   2.38837
 Alpha virt. eigenvalues --    2.39568   2.39699   2.41342   2.41779   2.42684
 Alpha virt. eigenvalues --    2.44070   2.45207   2.45228   2.46164   2.46723
 Alpha virt. eigenvalues --    2.47509   2.48030   2.49903   2.49976   2.50721
 Alpha virt. eigenvalues --    2.53627   2.54882   2.56237   2.57334   2.59230
 Alpha virt. eigenvalues --    2.60221   2.60992   2.61535   2.63768   2.64676
 Alpha virt. eigenvalues --    2.65774   2.65964   2.66727   2.67003   2.67569
 Alpha virt. eigenvalues --    2.67639   2.68241   2.69491   2.69817   2.69873
 Alpha virt. eigenvalues --    2.70035   2.70322   2.70413   2.70880   2.71119
 Alpha virt. eigenvalues --    2.72106   2.72445   2.72721   2.74322   2.74770
 Alpha virt. eigenvalues --    2.75737   2.77000   2.79230   2.79454   2.80058
 Alpha virt. eigenvalues --    2.80124   2.80337   2.80466   2.81824   2.82261
 Alpha virt. eigenvalues --    2.84525   2.85241   2.85775   2.86402   2.87057
 Alpha virt. eigenvalues --    2.87177   2.89613   2.91396   2.91873   2.94574
 Alpha virt. eigenvalues --    2.95897   2.97865   2.98469   2.99081   3.01341
 Alpha virt. eigenvalues --    3.02743   3.05011   3.05838   3.06155   3.07094
 Alpha virt. eigenvalues --    3.08634   3.09702   3.10251   3.11774   3.12514
 Alpha virt. eigenvalues --    3.15831   3.16232   3.19168   3.19722   3.20318
 Alpha virt. eigenvalues --    3.20731   3.20962   3.21892   3.22237   3.24156
 Alpha virt. eigenvalues --    3.24729   3.29764   3.29900   3.32655   3.32886
 Alpha virt. eigenvalues --    3.38113   3.39038   3.41614   3.45693   3.45963
 Alpha virt. eigenvalues --    3.47240   3.50718   3.52356   3.55496   3.58484
 Alpha virt. eigenvalues --    3.60549   3.62382   3.63185   3.63265   3.63510
 Alpha virt. eigenvalues --    3.63832   3.65784   3.66485   3.71966   3.72714
 Alpha virt. eigenvalues --    3.75730   3.75934   3.76575   3.78847   3.79453
 Alpha virt. eigenvalues --    3.82130   3.85085   3.92411   3.95019   4.02419
 Alpha virt. eigenvalues --    4.08620
 Electronic spatial extent (au):  <R**2>=          25433.3842
 Charge=             -0.0000 electrons
 Dipole moment (field-independent basis, Debye):
    X=             19.7607    Y=             14.4268    Z=              0.2459  Tot=             24.4679
 Quadrupole moment (field-independent basis, Debye-Ang):
   XX=           -308.1895   YY=           -250.3023   ZZ=           -219.8843
   XY=            -55.8621   XZ=             -1.6740   YZ=             -1.4354
 Traceless Quadrupole moment (field-independent basis, Debye-Ang):
   XX=            -48.7308   YY=              9.1564   ZZ=             39.5744
   XY=            -55.8621   XZ=             -1.6740   YZ=             -1.4354
 Octapole moment (field-independent basis, Debye-Ang**2):
  XXX=            512.3852  YYY=            116.1470  ZZZ=              1.9736  XYY=           -130.7817
  XXY=            290.6677  XXZ=             12.2594  XZZ=             49.7393  YZZ=             10.7450
  YYZ=             -2.9558  XYZ=            -10.4980
 Hexadecapole moment (field-independent basis, Debye-Ang**3):
 XXXX=         -19177.3943 YYYY=          -7166.4570 ZZZZ=          -5533.7465 XXXY=          -1221.6834
 XXXZ=            -63.8899 YYYX=           -623.0067 YYYZ=             13.5432 ZZZX=             11.9244
 ZZZY=            -32.1579 XXYY=          -4544.6354 XXZZ=          -3815.1844 YYZZ=          -2544.2411
 XXYZ=             17.9209 YYXZ=            -30.3678 ZZXY=            133.5832
 N-N= 5.860139154851D+03 E-N=-2.454768049169D+04  KE= 5.399270521595D+03
 D1PCM: PCM CHGder 1st derivatives, ID1Alg=3 FixD1E=F DoIter=F DoCFld=F I1PDM=0.
 Calling FoFJK, ICntrl=      2127 FMM=T ISym2X=0 I1Cent= 0 IOpClX= 0 NMat=1 NMatS=1 NMatT=0.
 -------------------------------------------------------------------
 Center     Atomic                   Forces (Hartrees/Bohr)
 Number     Number              X              Y              Z
 -------------------------------------------------------------------
      1       25          -0.000665007   -0.000023873    0.000093636
      2        6           0.000144979    0.000000670   -0.000026353
      3        8          -0.000008392    0.000042660    0.000064778
      4        6           0.000141891   -0.000048645   -0.000011235
      5        8           0.000002199    0.000025729   -0.000057192
      6        6           0.000112282   -0.000098653   -0.000037835
      7        7          -0.000054469    0.000019007   -0.000085357
      8        6          -0.000006990   -0.000054207    0.000032485
      9        6           0.000003310    0.000005295    0.000017764
     10        6           0.000053084    0.000010044   -0.000000207
     11        1          -0.000015794    0.000019924   -0.000018473
     12        1           0.000000512    0.000002495   -0.000000551
     13        7           0.000215439    0.000076576   -0.000056615
     14        6          -0.000094584    0.000023896    0.000102310
     15        6          -0.000048874   -0.000009499   -0.000038532
     16        6          -0.000036075    0.000003220   -0.000015622
     17        6          -0.000006440   -0.000016321    0.000001500
     18        6          -0.000182747    0.000091472    0.000097553
     19        1           0.000004435   -0.000014537   -0.000004687
     20        1           0.000230903   -0.000085178   -0.000099876
     21        7           0.000022719    0.000027860    0.000001233
     22        6           0.000001878   -0.000033341   -0.000008422
     23        6           0.000003338    0.000011834   -0.000005277
     24        1          -0.000045723   -0.000015873    0.000040463
     25        6          -0.000016550   -0.000019892   -0.000014018
     26        1          -0.000005581   -0.000009220   -0.000003466
     27        6           0.000017815    0.000009355    0.000009479
     28        1           0.000007842   -0.000005028   -0.000006988
     29        1          -0.000005980   -0.000000763    0.000001654
     30        8           0.000089236   -0.000078468    0.000009871
     31        6           0.000047225    0.000002475    0.000119465
     32        6           0.000018347    0.000023185   -0.000046583
     33        6           0.000012836    0.000023338    0.000023121
     34        6           0.000026329    0.000013459   -0.000030148
     35        6          -0.000009226    0.000006814   -0.000004749
     36        6           0.000000148    0.000004781    0.000008820
     37        6           0.000009042    0.000005507   -0.000007620
     38        6          -0.000018064    0.000001240    0.000024983
     39        6          -0.000023132    0.000021007   -0.000037071
     40        1          -0.000000244    0.000002776    0.000002304
     41        1           0.000004225    0.000004865    0.000003722
     42        1           0.000003438    0.000005504   -0.000002185
     43        6           0.000004021   -0.000006101    0.000029859
     44        6           0.000008388    0.000004553   -0.000000305
     45        6           0.000002076    0.000003781   -0.000004723
     46        6          -0.000005011    0.000005009    0.000000259
     47        6           0.000001203    0.000002446    0.000009861
     48        6           0.000006499    0.000009330   -0.000030869
     49        1          -0.000003634    0.000005566   -0.000000002
     50        1           0.000000585    0.000006523    0.000000314
     51        1          -0.000004571    0.000003558   -0.000002589
     52        6          -0.000002552   -0.000010826   -0.000016249
     53        1           0.000001141    0.000002731   -0.000003355
     54        6           0.000016308   -0.000009150   -0.000017162
     55        1           0.000002590    0.000001945   -0.000007191
     56        1          -0.000002738    0.000004398    0.000004320
     57        6          -0.000004177   -0.000006134    0.000003667
     58        6           0.000001032    0.000011257    0.000000569
     59        1          -0.000003407   -0.000008581    0.000001629
     60        1          -0.000005119   -0.000007499   -0.000001921
     61       35           0.000001833    0.000021270    0.000010617
     62        1           0.000050903    0.000002690   -0.000022675
     63        1           0.000005049   -0.000008257    0.000009869
 -------------------------------------------------------------------
 Cartesian Forces:  Max     0.000665007 RMS     0.000065417
 NDeriv=    189 NFrqRd=  0 NDerD0=      0 MskFDP=       0 MskDFD=       0 MskDF0=       0
 Re-enter D2Numr:  atom   1 IXYZ=1 step-up   number 1
 Basis read from rwf:  (5D, 7F)
   751 basis functions,  1339 primitive gaussians,   802 cartesian basis functions
   165 alpha electrons      165 beta electrons
       nuclear repulsion energy      5860.1697458668 Hartrees.
 NAtoms=   63 NActive=   63 NUniq=   63 SFac= 1.00D+00 NAtFMM=   60 NAOKFM=T Big=T
 Integral buffers will be    131072 words long.
 Raffenetti 2 integral format.
 Two-electron integral symmetry is turned off.
 Nuclear repulsion after empirical dispersion term =     5860.1066774763 Hartrees.
 ------------------------------------------------------------------------------
 Polarizable Continuum Model (PCM)
 =================================
 Model                : PCM.
 Atomic radii         : UFF (Universal Force Field).
 Polarization charges : Total charges.
 Charge compensation  : None.
 Solution method      : On-the-fly selection.
 Cavity type          : Scaled VdW (van der Waals Surface) (Alpha=1.100).
 Cavity algorithm     : GePol (No added spheres)
                        Default sphere list used, NSphG=   63.
                        Lebedev-Laikov grids with approx.  5.0 points / Ang**2.
                        Smoothing algorithm: York/Karplus (Gamma=1.0000).
                        Polarization charges: spherical gaussians, with
                                              point-specific exponents (IZeta= 3).
                        Self-potential: point-specific (ISelfS= 7).
                        Self-field    : sphere-specific E.n sum rule (ISelfD= 2).
 1st derivatives      : Analytical E(r).r(x)/FMM algorithm (CHGder, D1EAlg=3).
                        Cavity 1st derivative terms included.
 Solvent              : TetraHydroFuran, Eps=   7.425700 Eps(inf)=   1.974025
 ------------------------------------------------------------------------------
 One-electron integrals computed using PRISM.
 NBasis=   751 RedAO= T EigKep=  2.24D-04  NBF=   751
 NBsUse=   751 1.00D-06 EigRej= -1.00D+00 NBFU=   751
 Initial guess from the checkpoint file:  "checkpoint.chk"
 B after Tr=    -0.000143    0.000000    0.000000
         Rot=    1.000000    0.000000   -0.000000    0.000004 Ang=  -0.00 deg.
 Requested convergence on RMS density matrix=1.00D-08 within 128 cycles.
 Requested convergence on MAX density matrix=1.00D-06.
 Requested convergence on             energy=1.00D-06.
 No special actions if energy rises.
 Inv3:  Mode=1 IEnd=    73864332.
 Iteration    1 A*A^-1 deviation from unit magnitude is 3.55D-15 for   4650.
 Iteration    1 A*A^-1 deviation from orthogonality  is 2.66D-15 for   3255    496.
 Iteration    1 A^-1*A deviation from unit magnitude is 3.77D-15 for   4650.
 Iteration    1 A^-1*A deviation from orthogonality  is 2.89D-15 for   3235    525.
 Error on total polarization charges =  0.02144
 SCF Done:  E(RwB97XD) =  -5421.44460058     A.U. after   11 cycles
            NFock= 11  Conv=0.21D-08     -V/T= 2.0041

 **********************************************************************

            Population analysis using the SCF density.

 **********************************************************************

 Alpha  occ. eigenvalues -- -482.95450-235.70870 -62.53491 -56.34054 -56.34042
 Alpha  occ. eigenvalues --  -56.34037 -27.47537 -23.53468 -23.53111 -23.53048
 Alpha  occ. eigenvalues --  -19.34572 -19.34542 -19.34495 -14.50815 -14.50807
 Alpha  occ. eigenvalues --  -14.46642 -10.42146 -10.42142 -10.42122 -10.37155
 Alpha  occ. eigenvalues --  -10.37146 -10.36611 -10.36596 -10.36290 -10.35591
 Alpha  occ. eigenvalues --  -10.34657 -10.34642 -10.34559 -10.34550 -10.33579
 Alpha  occ. eigenvalues --  -10.33563 -10.33446 -10.33342 -10.33329 -10.33279
 Alpha  occ. eigenvalues --  -10.33273 -10.33252 -10.32880 -10.32874 -10.32638
 Alpha  occ. eigenvalues --  -10.32390 -10.32331 -10.32322 -10.32278 -10.32115
 Alpha  occ. eigenvalues --  -10.32032 -10.32002 -10.31995 -10.31849 -10.31845
 Alpha  occ. eigenvalues --   -8.70244  -6.51946  -6.51911  -6.51893  -3.26993
 Alpha  occ. eigenvalues --   -2.62450  -2.62444  -2.62429  -2.62401  -2.62400
 Alpha  occ. eigenvalues --   -2.12857  -2.11936  -2.11839  -1.23590  -1.23516
 Alpha  occ. eigenvalues --   -1.23348  -1.08599  -1.08291  -1.02156  -1.00303
 Alpha  occ. eigenvalues --   -0.97878  -0.97631  -0.94480  -0.93280  -0.91392
 Alpha  occ. eigenvalues --   -0.90866  -0.89860  -0.88166  -0.87492  -0.86416
 Alpha  occ. eigenvalues --   -0.85280  -0.85010  -0.81928  -0.76799  -0.75890
 Alpha  occ. eigenvalues --   -0.75416  -0.75396  -0.74764  -0.74595  -0.74404
 Alpha  occ. eigenvalues --   -0.72311  -0.72000  -0.70290  -0.69012  -0.68212
 Alpha  occ. eigenvalues --   -0.65748  -0.65261  -0.65176  -0.64939  -0.64543
 Alpha  occ. eigenvalues --   -0.64524  -0.62673  -0.62128  -0.61074  -0.60185
 Alpha  occ. eigenvalues --   -0.59149  -0.58431  -0.57661  -0.57535  -0.57259
 Alpha  occ. eigenvalues --   -0.56937  -0.56631  -0.56505  -0.56107  -0.55969
 Alpha  occ. eigenvalues --   -0.55730  -0.55285  -0.54924  -0.54846  -0.54461
 Alpha  occ. eigenvalues --   -0.54384  -0.54049  -0.53365  -0.52994  -0.52541
 Alpha  occ. eigenvalues --   -0.52476  -0.52467  -0.51994  -0.51303  -0.51260
 Alpha  occ. eigenvalues --   -0.51137  -0.51127  -0.50557  -0.49465  -0.49101
 Alpha  occ. eigenvalues --   -0.48548  -0.47988  -0.47408  -0.47317  -0.46044
 Alpha  occ. eigenvalues --   -0.45766  -0.45145  -0.44922  -0.43753  -0.43717
 Alpha  occ. eigenvalues --   -0.43386  -0.42442  -0.41853  -0.41240  -0.40727
 Alpha  occ. eigenvalues --   -0.40364  -0.39659  -0.37836  -0.36580  -0.35653
 Alpha  occ. eigenvalues --   -0.35161  -0.33664  -0.33579  -0.33351  -0.33257
 Alpha  occ. eigenvalues --   -0.32223  -0.29675  -0.29548  -0.29259  -0.28006
 Alpha virt. eigenvalues --   -0.03076  -0.00626  -0.00228   0.00665   0.00885
 Alpha virt. eigenvalues --    0.01823   0.01972   0.02429   0.03948   0.04350
 Alpha virt. eigenvalues --    0.04409   0.06217   0.06763   0.06936   0.08996
 Alpha virt. eigenvalues --    0.09086   0.09320   0.09653   0.10275   0.10458
 Alpha virt. eigenvalues --    0.11514   0.12856   0.13150   0.13653   0.14140
 Alpha virt. eigenvalues --    0.14328   0.14514   0.15208   0.15299   0.15869
 Alpha virt. eigenvalues --    0.15969   0.16678   0.17421   0.17928   0.18748
 Alpha virt. eigenvalues --    0.18765   0.19435   0.19561   0.19965   0.20426
 Alpha virt. eigenvalues --    0.20692   0.21554   0.21948   0.22204   0.22549
 Alpha virt. eigenvalues --    0.22633   0.23076   0.23348   0.23566   0.24793
 Alpha virt. eigenvalues --    0.25806   0.26055   0.26285   0.27059   0.27633
 Alpha virt. eigenvalues --    0.28226   0.29139   0.29834   0.29958   0.30304
 Alpha virt. eigenvalues --    0.30590   0.31065   0.31323   0.31845   0.32138
 Alpha virt. eigenvalues --    0.32258   0.32387   0.32953   0.33573   0.33858
 Alpha virt. eigenvalues --    0.34154   0.34552   0.34960   0.35259   0.35505
 Alpha virt. eigenvalues --    0.35741   0.35879   0.36108   0.36534   0.36617
 Alpha virt. eigenvalues --    0.37667   0.37775   0.38516   0.38708   0.39172
 Alpha virt. eigenvalues --    0.39992   0.40344   0.41292   0.41500   0.42061
 Alpha virt. eigenvalues --    0.42085   0.42416   0.42830   0.44053   0.44123
 Alpha virt. eigenvalues --    0.44658   0.45435   0.45902   0.46661   0.47143
 Alpha virt. eigenvalues --    0.47616   0.47852   0.48132   0.48196   0.48660
 Alpha virt. eigenvalues --    0.49957   0.50344   0.50643   0.50977   0.51237
 Alpha virt. eigenvalues --    0.51386   0.51828   0.52337   0.52571   0.52721
 Alpha virt. eigenvalues --    0.52928   0.53257   0.53612   0.54217   0.54540
 Alpha virt. eigenvalues --    0.54715   0.54937   0.55107   0.55695   0.56044
 Alpha virt. eigenvalues --    0.56168   0.56612   0.57291   0.57441   0.57613
 Alpha virt. eigenvalues --    0.58117   0.58836   0.59165   0.60151   0.60190
 Alpha virt. eigenvalues --    0.60482   0.60537   0.61088   0.61536   0.61561
 Alpha virt. eigenvalues --    0.61654   0.63252   0.63680   0.64164   0.64796
 Alpha virt. eigenvalues --    0.64870   0.65512   0.65572   0.66391   0.66850
 Alpha virt. eigenvalues --    0.67113   0.67513   0.67783   0.67969   0.68594
 Alpha virt. eigenvalues --    0.68664   0.69958   0.70447   0.70464   0.70838
 Alpha virt. eigenvalues --    0.71289   0.71714   0.71842   0.71962   0.72437
 Alpha virt. eigenvalues --    0.72723   0.72906   0.73016   0.73390   0.73444
 Alpha virt. eigenvalues --    0.73852   0.74055   0.74406   0.74729   0.74775
 Alpha virt. eigenvalues --    0.75331   0.75492   0.75677   0.75865   0.76425
 Alpha virt. eigenvalues --    0.76803   0.77011   0.77094   0.77677   0.78345
 Alpha virt. eigenvalues --    0.78428   0.78797   0.79081   0.79465   0.79631
 Alpha virt. eigenvalues --    0.80318   0.80483   0.80642   0.81154   0.81561
 Alpha virt. eigenvalues --    0.81687   0.81748   0.82534   0.82826   0.83703
 Alpha virt. eigenvalues --    0.83884   0.83943   0.84178   0.84544   0.84950
 Alpha virt. eigenvalues --    0.85264   0.85470   0.85590   0.86366   0.86933
 Alpha virt. eigenvalues --    0.86983   0.87337   0.87585   0.87833   0.88089
 Alpha virt. eigenvalues --    0.88434   0.89183   0.89274   0.90110   0.90253
 Alpha virt. eigenvalues --    0.90398   0.91415   0.91568   0.91688   0.92313
 Alpha virt. eigenvalues --    0.93825   0.94113   0.94329   0.94616   0.95170
 Alpha virt. eigenvalues --    0.95551   0.95791   0.96400   0.96945   0.97916
 Alpha virt. eigenvalues --    0.98167   0.98773   0.99051   0.99927   1.01483
 Alpha virt. eigenvalues --    1.01647   1.02258   1.03323   1.04782   1.04869
 Alpha virt. eigenvalues --    1.06584   1.07488   1.08880   1.09253   1.09531
 Alpha virt. eigenvalues --    1.11007   1.11365   1.13151   1.13665   1.14646
 Alpha virt. eigenvalues --    1.14822   1.15068   1.15867   1.16048   1.16211
 Alpha virt. eigenvalues --    1.16937   1.17834   1.18098   1.20807   1.21678
 Alpha virt. eigenvalues --    1.22022   1.22400   1.22963   1.24406   1.24560
 Alpha virt. eigenvalues --    1.24941   1.25174   1.25644   1.26220   1.26293
 Alpha virt. eigenvalues --    1.27537   1.27950   1.28437   1.28487   1.29548
 Alpha virt. eigenvalues --    1.29717   1.30257   1.30696   1.30740   1.30906
 Alpha virt. eigenvalues --    1.31491   1.32315   1.33089   1.33687   1.33903
 Alpha virt. eigenvalues --    1.34208   1.34447   1.34787   1.35318   1.35555
 Alpha virt. eigenvalues --    1.35869   1.35894   1.36200   1.37553   1.37663
 Alpha virt. eigenvalues --    1.38212   1.38347   1.38520   1.40217   1.40704
 Alpha virt. eigenvalues --    1.41966   1.42183   1.43183   1.43368   1.44535
 Alpha virt. eigenvalues --    1.45456   1.46746   1.48077   1.48175   1.49406
 Alpha virt. eigenvalues --    1.50469   1.54899   1.55603   1.55676   1.58905
 Alpha virt. eigenvalues --    1.59143   1.59884   1.62385   1.63631   1.64331
 Alpha virt. eigenvalues --    1.64909   1.65577   1.66560   1.67561   1.67771
 Alpha virt. eigenvalues --    1.68766   1.69728   1.70941   1.71701   1.72027
 Alpha virt. eigenvalues --    1.72835   1.73013   1.73260   1.73683   1.73802
 Alpha virt. eigenvalues --    1.74427   1.74741   1.75047   1.75480   1.76016
 Alpha virt. eigenvalues --    1.77224   1.77267   1.78085   1.78469   1.78659
 Alpha virt. eigenvalues --    1.78735   1.79401   1.79549   1.79945   1.80025
 Alpha virt. eigenvalues --    1.80389   1.80908   1.81462   1.81627   1.81806
 Alpha virt. eigenvalues --    1.81933   1.82092   1.82234   1.82645   1.82947
 Alpha virt. eigenvalues --    1.83417   1.84104   1.84305   1.84701   1.84877
 Alpha virt. eigenvalues --    1.85664   1.86100   1.86401   1.87097   1.87406
 Alpha virt. eigenvalues --    1.87650   1.87872   1.88290   1.89702   1.89768
 Alpha virt. eigenvalues --    1.90380   1.90389   1.91078   1.91248   1.91852
 Alpha virt. eigenvalues --    1.93363   1.94161   1.94317   1.95551   1.96085
 Alpha virt. eigenvalues --    1.96771   1.97088   1.97574   1.98315   1.99282
 Alpha virt. eigenvalues --    1.99393   2.00593   2.01152   2.01432   2.02201
 Alpha virt. eigenvalues --    2.02567   2.02832   2.03217   2.03866   2.04510
 Alpha virt. eigenvalues --    2.04821   2.04997   2.05423   2.05734   2.06133
 Alpha virt. eigenvalues --    2.06930   2.07931   2.09209   2.10064   2.10348
 Alpha virt. eigenvalues --    2.10928   2.11066   2.11847   2.12283   2.13924
 Alpha virt. eigenvalues --    2.14627   2.15515   2.15827   2.16623   2.16716
 Alpha virt. eigenvalues --    2.16847   2.17879   2.18156   2.18592   2.19582
 Alpha virt. eigenvalues --    2.20324   2.20567   2.20883   2.21319   2.21557
 Alpha virt. eigenvalues --    2.23276   2.23575   2.24383   2.24517   2.25805
 Alpha virt. eigenvalues --    2.26113   2.29375   2.29964   2.30736   2.31366
 Alpha virt. eigenvalues --    2.31464   2.31666   2.32814   2.33449   2.34417
 Alpha virt. eigenvalues --    2.34998   2.35839   2.36062   2.36676   2.37392
 Alpha virt. eigenvalues --    2.37639   2.37772   2.38133   2.38454   2.38836
 Alpha virt. eigenvalues --    2.39563   2.39697   2.41342   2.41779   2.42684
 Alpha virt. eigenvalues --    2.44070   2.45206   2.45227   2.46164   2.46723
 Alpha virt. eigenvalues --    2.47510   2.48029   2.49900   2.49976   2.50722
 Alpha virt. eigenvalues --    2.53627   2.54879   2.56235   2.57333   2.59231
 Alpha virt. eigenvalues --    2.60221   2.60989   2.61535   2.63767   2.64676
 Alpha virt. eigenvalues --    2.65769   2.65965   2.66728   2.67003   2.67569
 Alpha virt. eigenvalues --    2.67639   2.68240   2.69468   2.69824   2.69882
 Alpha virt. eigenvalues --    2.70036   2.70326   2.70404   2.70880   2.71105
 Alpha virt. eigenvalues --    2.72107   2.72444   2.72721   2.74323   2.74770
 Alpha virt. eigenvalues --    2.75736   2.77000   2.79231   2.79454   2.80058
 Alpha virt. eigenvalues --    2.80124   2.80338   2.80466   2.81824   2.82261
 Alpha virt. eigenvalues --    2.84526   2.85256   2.85779   2.86423   2.87059
 Alpha virt. eigenvalues --    2.87179   2.89642   2.91440   2.91873   2.94574
 Alpha virt. eigenvalues --    2.95897   2.97863   2.98468   2.99079   3.01340
 Alpha virt. eigenvalues --    3.02742   3.05012   3.05838   3.06163   3.07098
 Alpha virt. eigenvalues --    3.08634   3.09704   3.10250   3.11774   3.12511
 Alpha virt. eigenvalues --    3.15832   3.16230   3.19168   3.19724   3.20319
 Alpha virt. eigenvalues --    3.20731   3.20962   3.21892   3.22252   3.24171
 Alpha virt. eigenvalues --    3.24716   3.29749   3.29929   3.32668   3.32890
 Alpha virt. eigenvalues --    3.38117   3.39038   3.41618   3.45646   3.45941
 Alpha virt. eigenvalues --    3.47200   3.50718   3.52350   3.55477   3.58468
 Alpha virt. eigenvalues --    3.60587   3.62405   3.63117   3.63201   3.63510
 Alpha virt. eigenvalues --    3.63821   3.65785   3.66474   3.71964   3.72712
 Alpha virt. eigenvalues --    3.75733   3.75936   3.76575   3.78847   3.79447
 Alpha virt. eigenvalues --    3.82131   3.85110   3.92423   3.95106   4.02564
 Alpha virt. eigenvalues --    4.08436
 Electronic spatial extent (au):  <R**2>=          25433.8078
 Charge=             -0.0000 electrons
 Dipole moment (field-independent basis, Debye):
    X=             19.7706    Y=             14.4240    Z=              0.2459  Tot=             24.4743
 Quadrupole moment (field-independent basis, Debye-Ang):
   XX=           -308.2101   YY=           -250.2846   ZZ=           -219.9031
   XY=            -55.9045   XZ=             -1.6756   YZ=             -1.4342
 Traceless Quadrupole moment (field-independent basis, Debye-Ang):
   XX=            -48.7442   YY=              9.1813   ZZ=             39.5628
   XY=            -55.9045   XZ=             -1.6756   YZ=             -1.4342
 Octapole moment (field-independent basis, Debye-Ang**2):
  XXX=            512.5251  YYY=            116.0643  ZZZ=              1.9786  XYY=           -130.5975
  XXY=            290.7357  XXZ=             12.2622  XZZ=             49.8050  YZZ=             10.7884
  YYZ=             -2.9615  XYZ=            -10.4931
 Hexadecapole moment (field-independent basis, Debye-Ang**3):
 XXXX=         -19178.1131 YYYY=          -7165.9954 ZZZZ=          -5533.9198 XXXY=          -1222.0727
 XXXZ=            -63.9039 YYYX=           -623.8132 YYYZ=             13.5761 ZZZX=             11.9045
 ZZZY=            -32.1696 XXYY=          -4544.9024 XXZZ=          -3815.3728 YYZZ=          -2544.4121
 XXYZ=             17.9160 YYXZ=            -30.3851 ZZXY=            133.3954
 N-N= 5.860106677476D+03 E-N=-2.454761479502D+04  KE= 5.399269782310D+03
 D1PCM: PCM CHGder 1st derivatives, ID1Alg=3 FixD1E=F DoIter=F DoCFld=F I1PDM=0.
 Calling FoFJK, ICntrl=      2127 FMM=T ISym2X=0 I1Cent= 0 IOpClX= 0 NMat=1 NMatS=1 NMatT=0.
 -------------------------------------------------------------------
 Center     Atomic                   Forces (Hartrees/Bohr)
 Number     Number              X              Y              Z
 -------------------------------------------------------------------
      1       25           0.000524347   -0.000079298    0.000092560
      2        6          -0.000100589   -0.000055594    0.000007470
      3        8          -0.000002327   -0.000021710   -0.000061942
      4        6          -0.000107307   -0.000099412   -0.000046843
      5        8           0.000010776   -0.000045496    0.000062990
      6        6          -0.000105797    0.000020748   -0.000034491
      7        7          -0.000194176    0.000013844   -0.000075469
      8        6          -0.000010725   -0.000049036    0.000039013
      9        6           0.000001772    0.000004162    0.000016934
     10        6           0.000019059   -0.000014323   -0.000027470
     11        1          -0.000015017    0.000021262   -0.000017227
     12        1           0.000000917    0.000002483   -0.000000609
     13        7           0.000200219    0.000075626   -0.000057860
     14        6          -0.000093747    0.000023006    0.000102277
     15        6          -0.000048147   -0.000009225   -0.000038547
     16        6          -0.000035803    0.000003343   -0.000015650
     17        6          -0.000006355   -0.000016412    0.000001492
     18        6          -0.000183008    0.000091003    0.000097592
     19        1           0.000004421   -0.000014512   -0.000004690
[...]
 Alpha  occ. eigenvalues --   -0.85280  -0.85010  -0.81928  -0.76800  -0.75890
 Alpha  occ. eigenvalues --   -0.75416  -0.75397  -0.74765  -0.74595  -0.74404
 Alpha  occ. eigenvalues --   -0.72311  -0.72001  -0.70290  -0.69012  -0.68211
 Alpha  occ. eigenvalues --   -0.65748  -0.65264  -0.65173  -0.64939  -0.64543
 Alpha  occ. eigenvalues --   -0.64525  -0.62674  -0.62128  -0.61074  -0.60185
 Alpha  occ. eigenvalues --   -0.59149  -0.58430  -0.57661  -0.57535  -0.57259
 Alpha  occ. eigenvalues --   -0.56934  -0.56634  -0.56504  -0.56108  -0.55969
 Alpha  occ. eigenvalues --   -0.55729  -0.55289  -0.54924  -0.54846  -0.54461
 Alpha  occ. eigenvalues --   -0.54383  -0.54049  -0.53365  -0.52994  -0.52542
 Alpha  occ. eigenvalues --   -0.52477  -0.52469  -0.51995  -0.51303  -0.51259
 Alpha  occ. eigenvalues --   -0.51137  -0.51126  -0.50557  -0.49464  -0.49101
 Alpha  occ. eigenvalues --   -0.48548  -0.47988  -0.47408  -0.47317  -0.46044
 Alpha  occ. eigenvalues --   -0.45766  -0.45145  -0.44922  -0.43753  -0.43718
 Alpha  occ. eigenvalues --   -0.43386  -0.42442  -0.41857  -0.41242  -0.40727
 Alpha  occ. eigenvalues --   -0.40365  -0.39660  -0.37837  -0.36581  -0.35653
 Alpha  occ. eigenvalues --   -0.35160  -0.33664  -0.33579  -0.33351  -0.33256
 Alpha  occ. eigenvalues --   -0.32218  -0.29676  -0.29549  -0.29260  -0.28006
 Alpha virt. eigenvalues --   -0.03076  -0.00631  -0.00228   0.00665   0.00885
 Alpha virt. eigenvalues --    0.01822   0.01972   0.02429   0.03948   0.04362
 Alpha virt. eigenvalues --    0.04411   0.06215   0.06763   0.06933   0.08994
 Alpha virt. eigenvalues --    0.09085   0.09320   0.09653   0.10278   0.10457
 Alpha virt. eigenvalues --    0.11514   0.12856   0.13150   0.13653   0.14139
 Alpha virt. eigenvalues --    0.14329   0.14515   0.15208   0.15299   0.15869
 Alpha virt. eigenvalues --    0.15969   0.16678   0.17421   0.17928   0.18748
 Alpha virt. eigenvalues --    0.18765   0.19435   0.19561   0.19965   0.20426
 Alpha virt. eigenvalues --    0.20692   0.21554   0.21948   0.22204   0.22549
 Alpha virt. eigenvalues --    0.22633   0.23076   0.23346   0.23569   0.24793
 Alpha virt. eigenvalues --    0.25804   0.26055   0.26284   0.27058   0.27633
 Alpha virt. eigenvalues --    0.28224   0.29140   0.29835   0.29958   0.30304
 Alpha virt. eigenvalues --    0.30590   0.31065   0.31321   0.31845   0.32138
 Alpha virt. eigenvalues --    0.32258   0.32387   0.32952   0.33573   0.33858
 Alpha virt. eigenvalues --    0.34153   0.34551   0.34959   0.35259   0.35505
 Alpha virt. eigenvalues --    0.35740   0.35879   0.36107   0.36534   0.36617
 Alpha virt. eigenvalues --    0.37667   0.37774   0.38516   0.38708   0.39173
 Alpha virt. eigenvalues --    0.39992   0.40344   0.41294   0.41500   0.42061
 Alpha virt. eigenvalues --    0.42084   0.42416   0.42829   0.44052   0.44123
 Alpha virt. eigenvalues --    0.44658   0.45434   0.45902   0.46661   0.47142
 Alpha virt. eigenvalues --    0.47615   0.47851   0.48131   0.48198   0.48660
 Alpha virt. eigenvalues --    0.49957   0.50343   0.50642   0.50978   0.51237
 Alpha virt. eigenvalues --    0.51387   0.51829   0.52338   0.52571   0.52721
 Alpha virt. eigenvalues --    0.52929   0.53258   0.53613   0.54217   0.54538
 Alpha virt. eigenvalues --    0.54714   0.54938   0.55107   0.55695   0.56045
 Alpha virt. eigenvalues --    0.56169   0.56612   0.57290   0.57442   0.57611
 Alpha virt. eigenvalues --    0.58117   0.58841   0.59166   0.60149   0.60188
 Alpha virt. eigenvalues --    0.60481   0.60537   0.61090   0.61536   0.61562
 Alpha virt. eigenvalues --    0.61655   0.63252   0.63679   0.64164   0.64797
 Alpha virt. eigenvalues --    0.64870   0.65512   0.65575   0.66392   0.66852
 Alpha virt. eigenvalues --    0.67113   0.67512   0.67782   0.67969   0.68594
 Alpha virt. eigenvalues --    0.68665   0.69960   0.70448   0.70464   0.70837
 Alpha virt. eigenvalues --    0.71289   0.71714   0.71841   0.71962   0.72437
 Alpha virt. eigenvalues --    0.72724   0.72906   0.73015   0.73390   0.73444
 Alpha virt. eigenvalues --    0.73851   0.74055   0.74407   0.74729   0.74774
 Alpha virt. eigenvalues --    0.75331   0.75492   0.75675   0.75864   0.76425
 Alpha virt. eigenvalues --    0.76802   0.77012   0.77094   0.77677   0.78345
 Alpha virt. eigenvalues --    0.78429   0.78798   0.79082   0.79463   0.79631
 Alpha virt. eigenvalues --    0.80318   0.80483   0.80641   0.81156   0.81562
 Alpha virt. eigenvalues --    0.81687   0.81748   0.82534   0.82826   0.83703
 Alpha virt. eigenvalues --    0.83884   0.83943   0.84178   0.84541   0.84952
 Alpha virt. eigenvalues --    0.85264   0.85470   0.85590   0.86366   0.86931
 Alpha virt. eigenvalues --    0.86981   0.87337   0.87585   0.87834   0.88091
 Alpha virt. eigenvalues --    0.88432   0.89182   0.89271   0.90112   0.90250
 Alpha virt. eigenvalues --    0.90398   0.91416   0.91567   0.91687   0.92314
 Alpha virt. eigenvalues --    0.93825   0.94114   0.94329   0.94615   0.95171
 Alpha virt. eigenvalues --    0.95551   0.95790   0.96399   0.96945   0.97916
 Alpha virt. eigenvalues --    0.98167   0.98772   0.99049   0.99927   1.01483
 Alpha virt. eigenvalues --    1.01650   1.02258   1.03322   1.04782   1.04871
 Alpha virt. eigenvalues --    1.06580   1.07491   1.08876   1.09256   1.09528
 Alpha virt. eigenvalues --    1.10997   1.11363   1.13138   1.13664   1.14650
 Alpha virt. eigenvalues --    1.14826   1.15072   1.15873   1.16040   1.16210
 Alpha virt. eigenvalues --    1.16940   1.17831   1.18102   1.20812   1.21679
 Alpha virt. eigenvalues --    1.22020   1.22399   1.22965   1.24406   1.24561
 Alpha virt. eigenvalues --    1.24956   1.25161   1.25644   1.26221   1.26292
 Alpha virt. eigenvalues --    1.27537   1.27952   1.28438   1.28486   1.29548
 Alpha virt. eigenvalues --    1.29717   1.30257   1.30695   1.30740   1.30906
 Alpha virt. eigenvalues --    1.31492   1.32315   1.33092   1.33683   1.33905
 Alpha virt. eigenvalues --    1.34209   1.34447   1.34788   1.35320   1.35557
 Alpha virt. eigenvalues --    1.35871   1.35894   1.36200   1.37545   1.37661
 Alpha virt. eigenvalues --    1.38224   1.38353   1.38528   1.40217   1.40709
 Alpha virt. eigenvalues --    1.41966   1.42185   1.43186   1.43368   1.44535
 Alpha virt. eigenvalues --    1.45457   1.46746   1.48077   1.48174   1.49402
 Alpha virt. eigenvalues --    1.50470   1.54889   1.55601   1.55679   1.58903
 Alpha virt. eigenvalues --    1.59143   1.59885   1.62371   1.63631   1.64307
 Alpha virt. eigenvalues --    1.64907   1.65579   1.66560   1.67562   1.67775
 Alpha virt. eigenvalues --    1.68764   1.69730   1.70941   1.71703   1.72026
 Alpha virt. eigenvalues --    1.72838   1.73013   1.73258   1.73684   1.73806
 Alpha virt. eigenvalues --    1.74428   1.74744   1.75046   1.75480   1.76003
 Alpha virt. eigenvalues --    1.77226   1.77266   1.78099   1.78469   1.78660
 Alpha virt. eigenvalues --    1.78734   1.79400   1.79548   1.79944   1.80022
 Alpha virt. eigenvalues --    1.80389   1.80906   1.81462   1.81627   1.81806
 Alpha virt. eigenvalues --    1.81933   1.82092   1.82234   1.82643   1.82947
 Alpha virt. eigenvalues --    1.83416   1.84105   1.84305   1.84701   1.84876
 Alpha virt. eigenvalues --    1.85666   1.86099   1.86401   1.87097   1.87406
 Alpha virt. eigenvalues --    1.87653   1.87872   1.88296   1.89698   1.89768
 Alpha virt. eigenvalues --    1.90380   1.90389   1.91078   1.91255   1.91853
 Alpha virt. eigenvalues --    1.93363   1.94162   1.94321   1.95549   1.96082
 Alpha virt. eigenvalues --    1.96776   1.97088   1.97575   1.98314   1.99282
 Alpha virt. eigenvalues --    1.99393   2.00592   2.01152   2.01431   2.02199
 Alpha virt. eigenvalues --    2.02567   2.02833   2.03216   2.03866   2.04510
 Alpha virt. eigenvalues --    2.04823   2.04995   2.05423   2.05737   2.06136
 Alpha virt. eigenvalues --    2.06933   2.07932   2.09214   2.10064   2.10351
 Alpha virt. eigenvalues --    2.10930   2.11069   2.11847   2.12284   2.13924
 Alpha virt. eigenvalues --    2.14629   2.15516   2.15827   2.16620   2.16715
 Alpha virt. eigenvalues --    2.16846   2.17880   2.18162   2.18592   2.19588
 Alpha virt. eigenvalues --    2.20334   2.20567   2.20888   2.21319   2.21566
 Alpha virt. eigenvalues --    2.23280   2.23575   2.24383   2.24517   2.25804
 Alpha virt. eigenvalues --    2.26114   2.29376   2.29966   2.30736   2.31367
 Alpha virt. eigenvalues --    2.31465   2.31667   2.32814   2.33451   2.34417
 Alpha virt. eigenvalues --    2.34998   2.35841   2.36062   2.36679   2.37391
 Alpha virt. eigenvalues --    2.37641   2.37773   2.38135   2.38450   2.38840
 Alpha virt. eigenvalues --    2.39565   2.39698   2.41342   2.41779   2.42684
 Alpha virt. eigenvalues --    2.44070   2.45206   2.45228   2.46164   2.46723
 Alpha virt. eigenvalues --    2.47509   2.48029   2.49901   2.49976   2.50721
 Alpha virt. eigenvalues --    2.53627   2.54881   2.56236   2.57333   2.59230
 Alpha virt. eigenvalues --    2.60221   2.60990   2.61535   2.63768   2.64676
 Alpha virt. eigenvalues --    2.65771   2.65964   2.66727   2.67003   2.67569
 Alpha virt. eigenvalues --    2.67639   2.68240   2.69480   2.69821   2.69877
 Alpha virt. eigenvalues --    2.70036   2.70324   2.70408   2.70880   2.71112
 Alpha virt. eigenvalues --    2.72106   2.72445   2.72721   2.74322   2.74770
 Alpha virt. eigenvalues --    2.75737   2.76999   2.79231   2.79454   2.80058
 Alpha virt. eigenvalues --    2.80123   2.80337   2.80466   2.81824   2.82261
 Alpha virt. eigenvalues --    2.84526   2.85249   2.85777   2.86412   2.87058
 Alpha virt. eigenvalues --    2.87178   2.89628   2.91418   2.91873   2.94574
 Alpha virt. eigenvalues --    2.95897   2.97864   2.98469   2.99079   3.01340
 Alpha virt. eigenvalues --    3.02742   3.05011   3.05838   3.06159   3.07096
 Alpha virt. eigenvalues --    3.08633   3.09703   3.10250   3.11774   3.12512
 Alpha virt. eigenvalues --    3.15831   3.16230   3.19168   3.19723   3.20318
 Alpha virt. eigenvalues --    3.20731   3.20962   3.21892   3.22245   3.24163
 Alpha virt. eigenvalues --    3.24722   3.29757   3.29915   3.32662   3.32888
 Alpha virt. eigenvalues --    3.38115   3.39038   3.41616   3.45669   3.45952
 Alpha virt. eigenvalues --    3.47220   3.50718   3.52353   3.55485   3.58475
 Alpha virt. eigenvalues --    3.60568   3.62393   3.63151   3.63233   3.63510
 Alpha virt. eigenvalues --    3.63826   3.65785   3.66480   3.71965   3.72713
 Alpha virt. eigenvalues --    3.75731   3.75935   3.76575   3.78847   3.79450
 Alpha virt. eigenvalues --    3.82130   3.85097   3.92417   3.95062   4.02492
 Alpha virt. eigenvalues --    4.08528
 Electronic spatial extent (au):  <R**2>=          25433.5966
 Charge=             -0.0000 electrons
 Dipole moment (field-independent basis, Debye):
    X=             19.7657    Y=             14.4255    Z=              0.2468  Tot=             24.4712
 Quadrupole moment (field-independent basis, Debye-Ang):
   XX=           -308.1999   YY=           -250.2926   ZZ=           -219.8936
   XY=            -55.8836   XZ=             -1.6775   YZ=             -1.4327
 Traceless Quadrupole moment (field-independent basis, Debye-Ang):
   XX=            -48.7379   YY=              9.1695   ZZ=             39.5684
   XY=            -55.8836   XZ=             -1.6775   YZ=             -1.4327
 Octapole moment (field-independent basis, Debye-Ang**2):
  XXX=            512.4557  YYY=            116.1110  ZZZ=              1.9593  XYY=           -130.6922
  XXY=            290.7027  XXZ=             12.2629  XZZ=             49.7720  YZZ=             10.7669
  YYZ=             -2.9607  XYZ=            -10.5015
 Hexadecapole moment (field-independent basis, Debye-Ang**3):
 XXXX=         -19177.7544 YYYY=          -7166.1913 ZZZZ=          -5533.8349 XXXY=          -1221.8816
 XXXZ=            -63.8736 YYYX=           -623.4269 YYYZ=             13.5312 ZZZX=             11.9574
 ZZZY=            -32.1927 XXYY=          -4544.7598 XXZZ=          -3815.2785 YYZZ=          -2544.3262
 XXYZ=             17.9236 YYXZ=            -30.3682 ZZXY=            133.4888
 N-N= 5.860122527347D+03 E-N=-2.454764686242D+04  KE= 5.399270077772D+03
 D1PCM: PCM CHGder 1st derivatives, ID1Alg=3 FixD1E=F DoIter=F DoCFld=F I1PDM=0.
 Calling FoFJK, ICntrl=      2127 FMM=T ISym2X=0 I1Cent= 0 IOpClX= 0 NMat=1 NMatS=1 NMatT=0.
 -------------------------------------------------------------------
 Center     Atomic                   Forces (Hartrees/Bohr)
 Number     Number              X              Y              Z
 -------------------------------------------------------------------
      1       25          -0.000069298   -0.000052261    0.000092954
      2        6           0.000022042   -0.000027546   -0.000009785
      3        8          -0.000005336    0.000010527    0.000001539
      4        6           0.000017322   -0.000074179   -0.000028877
      5        8           0.000006437   -0.000009885    0.000002893
      6        6           0.000002510   -0.000038290   -0.000036223
      7        7          -0.000124704    0.000016337   -0.000080105
      8        6          -0.000008675   -0.000051879    0.000035849
      9        6           0.000002183    0.000004857    0.000017378
     10        6           0.000036341   -0.000001898   -0.000013795
     11        1          -0.000015429    0.000020626   -0.000017782
     12        1           0.000000732    0.000002482   -0.000000543
     13        7           0.000185983    0.000130097    0.000022865
     14        6          -0.000060204   -0.000041197   -0.000082949
     15        6          -0.000057121   -0.000000751    0.000081960
     16        6          -0.000032710    0.000000035   -0.000019048
     17        6          -0.000008135   -0.000017884   -0.000013765
     18        6          -0.000185510    0.000098444    0.000094151
     19        1           0.000005227   -0.000014693    0.000003173
     20        1           0.000231689   -0.000084913   -0.000092008
     21        7          -0.000046810    0.000024936   -0.000002799
     22        6          -0.000000053   -0.000030308   -0.000011497
     23        6           0.000002913    0.000011130   -0.000004886
     24        1          -0.000045311   -0.000015216    0.000039964
     25        6          -0.000003741   -0.000015202   -0.000007886
     26        1          -0.000004824   -0.000008587   -0.000001265
     27        6           0.000028689    0.000016924    0.000005951
     28        1           0.000007594   -0.000003400   -0.000008073
     29        1          -0.000005943   -0.000001015    0.000000639
     30        8           0.000003323    0.000020348    0.000013534
     31        6           0.000047100    0.000002399    0.000119453
     32        6           0.000018383    0.000023151   -0.000046581
     33        6           0.000012458    0.000023945    0.000022485
     34        6           0.000026240    0.000013233   -0.000030203
     35        6          -0.000009160    0.000006770   -0.000004730
     36        6           0.000000153    0.000004844    0.000008818
     37        6           0.000009121    0.000005487   -0.000007617
     38        6          -0.000017992    0.000001246    0.000025001
     39        6          -0.000023000    0.000021052   -0.000037011
     40        1          -0.000000271    0.000002767    0.000002303
     41        1           0.000004240    0.000004882    0.000003735
     42        1           0.000003446    0.000005515   -0.000002182
     43        6           0.000004160   -0.000006055    0.000029736
     44        6           0.000008450    0.000004561   -0.000000317
     45        6           0.000002169    0.000003759   -0.000004730
     46        6          -0.000005016    0.000005064    0.000000287
     47        6           0.000001251    0.000002398    0.000009862
     48        6           0.000006382    0.000009087   -0.000030826
     49        1          -0.000003621    0.000005579   -0.000000003
     50        1           0.000000601    0.000006544    0.000000305
     51        1          -0.000004593    0.000003555   -0.000002556
     52        6          -0.000003228   -0.000009901   -0.000016150
     53        1           0.000001321    0.000002726   -0.000003272
     54        6          -0.000000992   -0.000022546   -0.000004490
     55        1           0.000002875    0.000000973   -0.000005803
     56        1          -0.000002561    0.000003248    0.000002937
     57        6          -0.000004547   -0.000006442    0.000006200
     58        6          -0.000001866    0.000011110   -0.000014651
     59        1          -0.000003513   -0.000008342    0.000000703
     60        1          -0.000004844   -0.000007466    0.000000475
     61       35           0.000001882    0.000024806    0.000010087
     62        1           0.000050915    0.000002710   -0.000022672
     63        1           0.000004873   -0.000008297    0.000009845
 -------------------------------------------------------------------
 Cartesian Forces:  Max     0.000231689 RMS     0.000039829
 NDeriv=    189 NFrqRd=  0 NDerD0=      0 MskFDP=       0 MskDFD=       0 MskDF0=       0
 Re-enter D2Numr:  atom  14 IXYZ=3 step-up   number 1
 Basis read from rwf:  (5D, 7F)
   751 basis functions,  1339 primitive gaussians,   802 cartesian basis functions
   165 alpha electrons      165 beta electrons
       nuclear repulsion energy      5860.1863410860 Hartrees.
 NAtoms=   63 NActive=   63 NUniq=   63 SFac= 1.00D+00 NAtFMM=   60 NAOKFM=T Big=T
 Integral buffers will be    131072 words long.
 Raffenetti 2 integral format.
 Two-electron integral symmetry is turned off.
 Nuclear repulsion after empirical dispersion term =     5860.1232721020 Hartrees.
 ------------------------------------------------------------------------------
 Polarizable Continuum Model (PCM)
 =================================
 Model                : PCM.
 Atomic radii         : UFF (Universal Force Field).
 Polarization charges : Total charges.
 Charge compensation  : None.
 Solution method      : On-the-fly selection.
 Cavity type          : Scaled VdW (van der Waals Surface) (Alpha=1.100).
 Cavity algorithm     : GePol (No added spheres)
                        Default sphere list used, NSphG=   63.
                        Lebedev-Laikov grids with approx.  5.0 points / Ang**2.
                        Smoothing algorithm: York/Karplus (Gamma=1.0000).
                        Polarization charges: spherical gaussians, with
                                              point-specific exponents (IZeta= 3).
                        Self-potential: point-specific (ISelfS= 7).
                        Self-field    : sphere-specific E.n sum rule (ISelfD= 2).
 1st derivatives      : Analytical E(r).r(x)/FMM algorithm (CHGder, D1EAlg=3).
                        Cavity 1st derivative terms included.
 Solvent              : TetraHydroFuran, Eps=   7.425700 Eps(inf)=   1.974025
 ------------------------------------------------------------------------------
 One-electron integrals computed using PRISM.
 NBasis=   751 RedAO= T EigKep=  2.24D-04  NBF=   751
 NBsUse=   751 1.00D-06 EigRej= -1.00D+00 NBFU=   751
 Initial guess from the checkpoint file:  "checkpoint.chk"
 B after Tr=     0.000000   -0.000000   -0.000034
         Rot=    1.000000    0.000002    0.000002    0.000000 Ang=   0.00 deg.
 Requested convergence on RMS density matrix=1.00D-08 within 128 cycles.
 Requested convergence on MAX density matrix=1.00D-06.
 Requested convergence on             energy=1.00D-06.
 No special actions if energy rises.
 Inv3:  Mode=1 IEnd=    73864332.
 Iteration    1 A*A^-1 deviation from unit magnitude is 4.11D-15 for   2677.
 Iteration    1 A*A^-1 deviation from orthogonality  is 2.44D-15 for   2775   1784.
 Iteration    1 A^-1*A deviation from unit magnitude is 4.11D-15 for   2677.
 Iteration    1 A^-1*A deviation from orthogonality  is 2.33D-15 for   3138    452.
