 Entering Gaussian System, Link 0=g16
 Initial command:
 /home1/apps/gaussian/16rA.03/g16/l1.exe "/tmp/Gau-255556.inp" -scrdir="/tmp/"
 Entering Link 1 = /home1/apps/gaussian/16rA.03/g16/l1.exe PID=    255559.
  
 Copyright (c) 1988,1990,1992,1993,1995,1998,2003,2009,2016,
            Gaussian, Inc.  All Rights Reserved.
  
 This is part of the Gaussian(R) 16 program.  It is based on
 the Gaussian(R) 09 system (copyright 2009, Gaussian, Inc.),
 the Gaussian(R) 03 system (copyright 2003, Gaussian, Inc.),
 the Gaussian(R) 98 system (copyright 1998, Gaussian, Inc.),
 the Gaussian(R) 94 system (copyright 1995, Gaussian, Inc.),
 the Gaussian 92(TM) system (copyright 1992, Gaussian, Inc.),
 the Gaussian 90(TM) system (copyright 1990, Gaussian, Inc.),
 the Gaussian 88(TM) system (copyright 1988, Gaussian, Inc.),
 the Gaussian 86(TM) system (copyright 1986, Carnegie Mellon
 University), and the Gaussian 82(TM) system (copyright 1983,
 Carnegie Mellon University). Gaussian is a federally registered
 trademark of Gaussian, Inc.
  
 This software contains proprietary and confidential information,
 including trade secrets, belonging to Gaussian, Inc.
  
 This software is provided under written license and may be
 used, copied, transmitted, or stored only in accord with that
 written license.
  
 The following legend is applicable only to US Government
 contracts under FAR:
  
                    RESTRICTED RIGHTS LEGEND
  
 Use, reproduction and disclosure by the US Government is
 subject to restrictions as set forth in subparagraphs (a)
 and (c) of the Commercial Computer Software - Restricted
 Rights clause in FAR 52.227-19.
  
 Gaussian, Inc.
 340 Quinnipiac St., Bldg. 40, Wallingford CT 06492
  
  
 ---------------------------------------------------------------
 Warning -- This program may not be used in any manner that
 competes with the business of Gaussian, Inc. or will provide
 assistance to any competitor of Gaussian, Inc.  The licensee
 of this program is prohibited from giving any competitor of
 Gaussian, Inc. access to this program.  By using this program,
 the user acknowledges that Gaussian, Inc. is engaged in the
 business of creating and licensing software in the field of
 computational chemistry and represents and warrants to the
 licensee that it is not a competitor of Gaussian, Inc. and that
 it will not use this program in any manner prohibited above.
 ---------------------------------------------------------------
  

 Cite this work as:
 Gaussian 16, Revision A.03,
 M. J. Frisch, G. W. Trucks, H. B. Schlegel, G. E. Scuseria, 
 M. A. Robb, J. R. Cheeseman, G. Scalmani, V. Barone, 
 G. A. Petersson, H. Nakatsuji, X. Li, M. Caricato, A. V. Marenich, 
 J. Bloino, B. G. Janesko, R. Gomperts, B. Mennucci, H. P. Hratchian, 
 J. V. Ortiz, A. F. Izmaylov, J. L. Sonnenberg, D. Williams-Young, 
 F. Ding, F. Lipparini, F. Egidi, J. Goings, B. Peng, A. Petrone, 
 T. Henderson, D. Ranasinghe, V. G. Zakrzewski, J. Gao, N. Rega, 
 G. Zheng, W. Liang, M. Hada, M. Ehara, K. Toyota, R. Fukuda, 
 J. Hasegawa, M. Ishida, T. Nakajima, Y. Honda, O. Kitao, H. Nakai, 
 T. Vreven, K. Throssell, J. A. Montgomery, Jr., J. E. Peralta, 
 F. Ogliaro, M. J. Bearpark, J. J. Heyd, E. N. Brothers, K. N. Kudin, 
 V. N. Staroverov, T. A. Keith, R. Kobayashi, J. Normand, 
 K. Raghavachari, A. P. Rendell, J. C. Burant, S. S. Iyengar, 
 J. Tomasi, M. Cossi, J. M. Millam, M. Klene, C. Adamo, R. Cammi, 
 J. W. Ochterski, R. L. Martin, K. Morokuma, O. Farkas, 
 J. B. Foresman, and D. J. Fox, Gaussian, Inc., Wallingford CT, 2016.
 
 ******************************************
 Gaussian 16:  ES64L-G16RevA.03 25-Dec-2016
                 5-Mar-2023 
 ******************************************
 %RWF=myrwfile
 %NoSave
 %NProcShared=12
 Will use up to   12 processors via shared memory.
 %Chk=checkpoint.chk
 %mem=200MW
 ---------------------------------------------------------------
 # wB97XD Gen SCRF=(Solvent=TetraHydroFuran) Freq(Numer,Restart)
 ---------------------------------------------------------------
 1/35=1,38=10/6(3);
 7/8=1,25=1,44=-1/16;
 1/10=4,30=1,38=10/3;
 99//99;
 3/5=7,6=1,11=2,25=1,30=1,70=2205,71=1,72=20,74=-58,82=7/1,2,3;
 4/5=5,16=3,69=2/1;
 5/5=2,38=5,53=20,98=1/2;
 6/7=2,8=2,9=2,10=2,12=2,28=1/1;
 7/7=1/1,2,3,16;
 1/38=10/6(-5);
 7/8=1,25=1,44=-1/16;
 1/10=4,30=1,38=10/3;
 99//99;
 Restoring state from the checkpoint file "checkpoint.chk".
 ONIOM results not found on unit 2.
 Title:  TS Freq Analysis
 Route:  # wB97XD Gen SCRF=(Solvent=TetraHydroFuran) Freq(Numer)
 NDeriv=    189 NFrqRd=  0 NDerD0=      0 MskFDP=       0 MskDFD=       0 MskDF0=       0
 Re-enter D2Numr:  atom  46 IXYZ=1 step-down number 1
 Basis read from rwf:  (5D, 7F)
   751 basis functions,  1339 primitive gaussians,   802 cartesian basis functions
   165 alpha electrons      165 beta electrons
       nuclear repulsion energy      5860.1833728215 Hartrees.
 NAtoms=   63 NActive=   63 NUniq=   63 SFac= 1.00D+00 NAtFMM=   60 NAOKFM=T Big=T
 Integral buffers will be    131072 words long.
 Raffenetti 2 integral format.
 Two-electron integral symmetry is turned off.
 Nuclear repulsion after empirical dispersion term =     5860.1203038767 Hartrees.
 ------------------------------------------------------------------------------
 Polarizable Continuum Model (PCM)
 =================================
 Model                : PCM.
 Atomic radii         : UFF (Universal Force Field).
 Polarization charges : Total charges.
 Charge compensation  : None.
 Solution method      : On-the-fly selection.
 Cavity type          : Scaled VdW (van der Waals Surface) (Alpha=1.100).
 Cavity algorithm     : GePol (No added spheres)
                        Default sphere list used, NSphG=   63.
                        Lebedev-Laikov grids with approx.  5.0 points / Ang**2.
                        Smoothing algorithm: York/Karplus (Gamma=1.0000).
                        Polarization charges: spherical gaussians, with
                                              point-specific exponents (IZeta= 3).
                        Self-potential: point-specific (ISelfS= 7).
                        Self-field    : sphere-specific E.n sum rule (ISelfD= 2).
 1st derivatives      : Analytical E(r).r(x)/FMM algorithm (CHGder, D1EAlg=3).
                        Cavity 1st derivative terms included.
 Solvent              : TetraHydroFuran, Eps=   7.425700 Eps(inf)=   1.974025
 ------------------------------------------------------------------------------
 One-electron integrals computed using PRISM.
 NBasis=   751 RedAO= T EigKep=  2.24D-04  NBF=   751
 NBsUse=   751 1.00D-06 EigRej= -1.00D+00 NBFU=   751
 Initial guess from the checkpoint file:  "checkpoint.chk"
 B after Tr=     0.000000    0.000034   -0.000000
         Rot=    1.000000   -0.000004   -0.000000   -0.000003 Ang=  -0.00 deg.
 Requested convergence on RMS density matrix=1.00D-08 within 128 cycles.
 Requested convergence on MAX density matrix=1.00D-06.
 Requested convergence on             energy=1.00D-06.
 No special actions if energy rises.
 Inv3:  Mode=1 IEnd=    73923888.
 Iteration    1 A*A^-1 deviation from unit magnitude is 3.55D-15 for   1119.
 Iteration    1 A*A^-1 deviation from orthogonality  is 2.44D-15 for   3531    639.
 Iteration    1 A^-1*A deviation from unit magnitude is 3.33D-15 for   1353.
 Iteration    1 A^-1*A deviation from orthogonality  is 3.33D-15 for   3141    455.
 Error on total polarization charges =  0.02143
 SCF Done:  E(RwB97XD) =  -5421.44460077     A.U. after    6 cycles
            NFock=  6  Conv=0.89D-08     -V/T= 2.0041

 **********************************************************************

            Population analysis using the SCF density.

 **********************************************************************

 Alpha  occ. eigenvalues -- -482.95450-235.70868 -62.53491 -56.34054 -56.34042
 Alpha  occ. eigenvalues --  -56.34037 -27.47536 -23.53468 -23.53109 -23.53047
 Alpha  occ. eigenvalues --  -19.34579 -19.34549 -19.34480 -14.50816 -14.50808
 Alpha  occ. eigenvalues --  -14.46642 -10.42153 -10.42149 -10.42107 -10.37155
 Alpha  occ. eigenvalues --  -10.37146 -10.36612 -10.36597 -10.36290 -10.35591
 Alpha  occ. eigenvalues --  -10.34657 -10.34642 -10.34560 -10.34550 -10.33578
 Alpha  occ. eigenvalues --  -10.33563 -10.33446 -10.33343 -10.33330 -10.33279
 Alpha  occ. eigenvalues --  -10.33273 -10.33252 -10.32881 -10.32874 -10.32638
 Alpha  occ. eigenvalues --  -10.32390 -10.32331 -10.32322 -10.32278 -10.32115
 Alpha  occ. eigenvalues --  -10.32032 -10.32002 -10.31995 -10.31849 -10.31845
 Alpha  occ. eigenvalues --   -8.70244  -6.51946  -6.51911  -6.51893  -3.26993
 Alpha  occ. eigenvalues --   -2.62450  -2.62444  -2.62430  -2.62402  -2.62400
 Alpha  occ. eigenvalues --   -2.12858  -2.11933  -2.11838  -1.23595  -1.23522
 Alpha  occ. eigenvalues --   -1.23338  -1.08601  -1.08292  -1.02155  -1.00303
 Alpha  occ. eigenvalues --   -0.97878  -0.97631  -0.94480  -0.93281  -0.91392
 Alpha  occ. eigenvalues --   -0.90866  -0.89860  -0.88166  -0.87492  -0.86416
 Alpha  occ. eigenvalues --   -0.85280  -0.85010  -0.81928  -0.76799  -0.75890
 Alpha  occ. eigenvalues --   -0.75416  -0.75397  -0.74764  -0.74595  -0.74404
 Alpha  occ. eigenvalues --   -0.72311  -0.72000  -0.70290  -0.69012  -0.68211
 Alpha  occ. eigenvalues --   -0.65748  -0.65264  -0.65173  -0.64939  -0.64543
 Alpha  occ. eigenvalues --   -0.64525  -0.62674  -0.62128  -0.61074  -0.60185
 Alpha  occ. eigenvalues --   -0.59149  -0.58430  -0.57661  -0.57535  -0.57259
 Alpha  occ. eigenvalues --   -0.56934  -0.56634  -0.56504  -0.56108  -0.55969
 Alpha  occ. eigenvalues --   -0.55729  -0.55289  -0.54924  -0.54846  -0.54461
 Alpha  occ. eigenvalues --   -0.54383  -0.54049  -0.53365  -0.52994  -0.52542
 Alpha  occ. eigenvalues --   -0.52476  -0.52468  -0.51995  -0.51303  -0.51259
 Alpha  occ. eigenvalues --   -0.51137  -0.51127  -0.50557  -0.49464  -0.49101
 Alpha  occ. eigenvalues --   -0.48548  -0.47988  -0.47408  -0.47317  -0.46044
 Alpha  occ. eigenvalues --   -0.45766  -0.45145  -0.44922  -0.43753  -0.43718
 Alpha  occ. eigenvalues --   -0.43386  -0.42443  -0.41856  -0.41241  -0.40728
 Alpha  occ. eigenvalues --   -0.40365  -0.39660  -0.37837  -0.36581  -0.35653
 Alpha  occ. eigenvalues --   -0.35161  -0.33665  -0.33579  -0.33351  -0.33256
 Alpha  occ. eigenvalues --   -0.32218  -0.29676  -0.29549  -0.29260  -0.28006
 Alpha virt. eigenvalues --   -0.03076  -0.00631  -0.00228   0.00665   0.00885
 Alpha virt. eigenvalues --    0.01822   0.01972   0.02429   0.03948   0.04362
 Alpha virt. eigenvalues --    0.04411   0.06215   0.06763   0.06934   0.08994
 Alpha virt. eigenvalues --    0.09086   0.09320   0.09653   0.10278   0.10457
 Alpha virt. eigenvalues --    0.11514   0.12856   0.13149   0.13653   0.14140
 Alpha virt. eigenvalues --    0.14329   0.14515   0.15208   0.15299   0.15869
 Alpha virt. eigenvalues --    0.15969   0.16678   0.17421   0.17928   0.18748
 Alpha virt. eigenvalues --    0.18765   0.19435   0.19561   0.19965   0.20426
 Alpha virt. eigenvalues --    0.20692   0.21554   0.21948   0.22204   0.22549
 Alpha virt. eigenvalues --    0.22633   0.23077   0.23348   0.23566   0.24794
 Alpha virt. eigenvalues --    0.25805   0.26055   0.26284   0.27058   0.27632
 Alpha virt. eigenvalues --    0.28224   0.29140   0.29835   0.29958   0.30304
 Alpha virt. eigenvalues --    0.30590   0.31065   0.31321   0.31845   0.32138
 Alpha virt. eigenvalues --    0.32258   0.32387   0.32951   0.33572   0.33858
 Alpha virt. eigenvalues --    0.34153   0.34551   0.34959   0.35259   0.35505
 Alpha virt. eigenvalues --    0.35740   0.35879   0.36107   0.36534   0.36617
 Alpha virt. eigenvalues --    0.37668   0.37774   0.38516   0.38708   0.39172
 Alpha virt. eigenvalues --    0.39992   0.40345   0.41294   0.41499   0.42062
 Alpha virt. eigenvalues --    0.42085   0.42415   0.42830   0.44051   0.44123
 Alpha virt. eigenvalues --    0.44658   0.45434   0.45902   0.46661   0.47142
 Alpha virt. eigenvalues --    0.47614   0.47851   0.48131   0.48198   0.48660
 Alpha virt. eigenvalues --    0.49957   0.50343   0.50641   0.50978   0.51237
 Alpha virt. eigenvalues --    0.51387   0.51829   0.52338   0.52572   0.52721
 Alpha virt. eigenvalues --    0.52929   0.53258   0.53614   0.54217   0.54539
 Alpha virt. eigenvalues --    0.54714   0.54937   0.55107   0.55693   0.56046
 Alpha virt. eigenvalues --    0.56169   0.56612   0.57291   0.57441   0.57611
 Alpha virt. eigenvalues --    0.58117   0.58841   0.59167   0.60149   0.60188
 Alpha virt. eigenvalues --    0.60481   0.60536   0.61090   0.61536   0.61562
 Alpha virt. eigenvalues --    0.61655   0.63252   0.63679   0.64165   0.64797
 Alpha virt. eigenvalues --    0.64870   0.65511   0.65576   0.66391   0.66851
 Alpha virt. eigenvalues --    0.67113   0.67513   0.67782   0.67969   0.68593
 Alpha virt. eigenvalues --    0.68665   0.69960   0.70448   0.70463   0.70837
 Alpha virt. eigenvalues --    0.71288   0.71714   0.71842   0.71962   0.72437
 Alpha virt. eigenvalues --    0.72724   0.72906   0.73016   0.73390   0.73445
 Alpha virt. eigenvalues --    0.73851   0.74054   0.74407   0.74729   0.74775
 Alpha virt. eigenvalues --    0.75330   0.75492   0.75676   0.75864   0.76426
 Alpha virt. eigenvalues --    0.76803   0.77012   0.77094   0.77677   0.78346
 Alpha virt. eigenvalues --    0.78428   0.78798   0.79081   0.79464   0.79631
 Alpha virt. eigenvalues --    0.80318   0.80484   0.80640   0.81157   0.81562
 Alpha virt. eigenvalues --    0.81687   0.81747   0.82534   0.82825   0.83703
 Alpha virt. eigenvalues --    0.83883   0.83944   0.84179   0.84541   0.84952
 Alpha virt. eigenvalues --    0.85263   0.85470   0.85591   0.86366   0.86932
 Alpha virt. eigenvalues --    0.86981   0.87336   0.87584   0.87834   0.88091
 Alpha virt. eigenvalues --    0.88433   0.89183   0.89271   0.90109   0.90253
 Alpha virt. eigenvalues --    0.90398   0.91414   0.91567   0.91685   0.92314
 Alpha virt. eigenvalues --    0.93824   0.94113   0.94329   0.94614   0.95171
 Alpha virt. eigenvalues --    0.95550   0.95790   0.96400   0.96943   0.97916
 Alpha virt. eigenvalues --    0.98167   0.98771   0.99050   0.99924   1.01485
 Alpha virt. eigenvalues --    1.01649   1.02258   1.03322   1.04784   1.04870
 Alpha virt. eigenvalues --    1.06583   1.07488   1.08880   1.09256   1.09531
 Alpha virt. eigenvalues --    1.10998   1.11360   1.13139   1.13665   1.14649
 Alpha virt. eigenvalues --    1.14825   1.15071   1.15866   1.16046   1.16211
 Alpha virt. eigenvalues --    1.16940   1.17828   1.18102   1.20811   1.21679
 Alpha virt. eigenvalues --    1.22020   1.22391   1.22962   1.24405   1.24563
 Alpha virt. eigenvalues --    1.24944   1.25173   1.25642   1.26214   1.26291
 Alpha virt. eigenvalues --    1.27534   1.27960   1.28442   1.28488   1.29545
 Alpha virt. eigenvalues --    1.29717   1.30266   1.30694   1.30740   1.30906
 Alpha virt. eigenvalues --    1.31490   1.32312   1.33088   1.33687   1.33902
 Alpha virt. eigenvalues --    1.34207   1.34451   1.34788   1.35323   1.35556
 Alpha virt. eigenvalues --    1.35871   1.35896   1.36200   1.37549   1.37662
 Alpha virt. eigenvalues --    1.38222   1.38353   1.38528   1.40216   1.40708
 Alpha virt. eigenvalues --    1.41965   1.42183   1.43186   1.43370   1.44533
 Alpha virt. eigenvalues --    1.45457   1.46746   1.48079   1.48174   1.49403
 Alpha virt. eigenvalues --    1.50470   1.54889   1.55598   1.55679   1.58904
 Alpha virt. eigenvalues --    1.59143   1.59886   1.62370   1.63632   1.64306
 Alpha virt. eigenvalues --    1.64907   1.65578   1.66558   1.67563   1.67774
 Alpha virt. eigenvalues --    1.68765   1.69730   1.70943   1.71703   1.72026
 Alpha virt. eigenvalues --    1.72837   1.73013   1.73258   1.73683   1.73805
 Alpha virt. eigenvalues --    1.74427   1.74744   1.75046   1.75481   1.76003
 Alpha virt. eigenvalues --    1.77224   1.77269   1.78099   1.78471   1.78660
 Alpha virt. eigenvalues --    1.78734   1.79402   1.79545   1.79942   1.80023
 Alpha virt. eigenvalues --    1.80389   1.80905   1.81462   1.81627   1.81806
 Alpha virt. eigenvalues --    1.81933   1.82092   1.82237   1.82644   1.82946
 Alpha virt. eigenvalues --    1.83416   1.84105   1.84305   1.84700   1.84877
 Alpha virt. eigenvalues --    1.85666   1.86099   1.86401   1.87097   1.87406
 Alpha virt. eigenvalues --    1.87653   1.87871   1.88295   1.89698   1.89768
 Alpha virt. eigenvalues --    1.90379   1.90390   1.91078   1.91254   1.91853
 Alpha virt. eigenvalues --    1.93363   1.94161   1.94321   1.95549   1.96081
 Alpha virt. eigenvalues --    1.96776   1.97088   1.97574   1.98315   1.99283
 Alpha virt. eigenvalues --    1.99393   2.00591   2.01153   2.01432   2.02199
 Alpha virt. eigenvalues --    2.02567   2.02834   2.03219   2.03867   2.04510
 Alpha virt. eigenvalues --    2.04823   2.04995   2.05423   2.05737   2.06135
 Alpha virt. eigenvalues --    2.06932   2.07933   2.09213   2.10064   2.10349
 Alpha virt. eigenvalues --    2.10928   2.11070   2.11844   2.12283   2.13927
 Alpha virt. eigenvalues --    2.14629   2.15514   2.15824   2.16620   2.16714
 Alpha virt. eigenvalues --    2.16847   2.17880   2.18159   2.18592   2.19589
 Alpha virt. eigenvalues --    2.20336   2.20567   2.20883   2.21319   2.21565
 Alpha virt. eigenvalues --    2.23278   2.23578   2.24382   2.24518   2.25805
 Alpha virt. eigenvalues --    2.26112   2.29376   2.29967   2.30730   2.31367
 Alpha virt. eigenvalues --    2.31466   2.31665   2.32817   2.33452   2.34423
 Alpha virt. eigenvalues --    2.34998   2.35840   2.36064   2.36680   2.37392
 Alpha virt. eigenvalues --    2.37648   2.37776   2.38132   2.38452   2.38836
 Alpha virt. eigenvalues --    2.39570   2.39698   2.41342   2.41779   2.42678
 Alpha virt. eigenvalues --    2.44068   2.45207   2.45229   2.46163   2.46723
 Alpha virt. eigenvalues --    2.47509   2.48028   2.49899   2.49972   2.50725
 Alpha virt. eigenvalues --    2.53631   2.54881   2.56238   2.57333   2.59230
 Alpha virt. eigenvalues --    2.60219   2.60987   2.61537   2.63768   2.64676
 Alpha virt. eigenvalues --    2.65772   2.65968   2.66726   2.67003   2.67569
 Alpha virt. eigenvalues --    2.67639   2.68240   2.69480   2.69821   2.69877
 Alpha virt. eigenvalues --    2.70036   2.70324   2.70408   2.70880   2.71112
 Alpha virt. eigenvalues --    2.72104   2.72443   2.72719   2.74326   2.74766
 Alpha virt. eigenvalues --    2.75742   2.77000   2.79230   2.79453   2.80058
 Alpha virt. eigenvalues --    2.80124   2.80336   2.80466   2.81822   2.82262
 Alpha virt. eigenvalues --    2.84524   2.85248   2.85777   2.86412   2.87058
 Alpha virt. eigenvalues --    2.87178   2.89628   2.91418   2.91873   2.94574
 Alpha virt. eigenvalues --    2.95898   2.97863   2.98469   2.99080   3.01341
 Alpha virt. eigenvalues --    3.02742   3.05011   3.05838   3.06159   3.07096
 Alpha virt. eigenvalues --    3.08634   3.09703   3.10251   3.11773   3.12512
 Alpha virt. eigenvalues --    3.15832   3.16231   3.19168   3.19723   3.20318
 Alpha virt. eigenvalues --    3.20731   3.20962   3.21892   3.22245   3.24163
 Alpha virt. eigenvalues --    3.24722   3.29757   3.29915   3.32662   3.32888
 Alpha virt. eigenvalues --    3.38115   3.39038   3.41616   3.45670   3.45952
 Alpha virt. eigenvalues --    3.47220   3.50716   3.52353   3.55487   3.58476
 Alpha virt. eigenvalues --    3.60568   3.62393   3.63151   3.63233   3.63509
 Alpha virt. eigenvalues --    3.63826   3.65785   3.66480   3.71964   3.72713
 Alpha virt. eigenvalues --    3.75731   3.75935   3.76575   3.78847   3.79450
 Alpha virt. eigenvalues --    3.82130   3.85097   3.92417   3.95062   4.02492
 Alpha virt. eigenvalues --    4.08528
 Electronic spatial extent (au):  <R**2>=          25433.6234
 Charge=             -0.0000 electrons
 Dipole moment (field-independent basis, Debye):
    X=             19.7656    Y=             14.4247    Z=              0.2459  Tot=             24.4707
 Quadrupole moment (field-independent basis, Debye-Ang):
   XX=           -308.1994   YY=           -250.2944   ZZ=           -219.8935
   XY=            -55.8876   XZ=             -1.6748   YZ=             -1.4319
 Traceless Quadrupole moment (field-independent basis, Debye-Ang):
   XX=            -48.7370   YY=              9.1680   ZZ=             39.5689
   XY=            -55.8876   XZ=             -1.6748   YZ=             -1.4319
 Octapole moment (field-independent basis, Debye-Ang**2):
  XXX=            512.4586  YYY=            116.0869  ZZZ=              1.9749  XYY=           -130.6957
  XXY=            290.6706  XXZ=             12.2593  XZZ=             49.7731  YZZ=             10.7496
  YYZ=             -2.9547  XYZ=            -10.4790
 Hexadecapole moment (field-independent basis, Debye-Ang**3):
 XXXX=         -19177.7232 YYYY=          -7166.2719 ZZZZ=          -5533.8243 XXXY=          -1222.1210
 XXXZ=            -63.9099 YYYX=           -623.5130 YYYZ=             13.6284 ZZZX=             11.9055
 ZZZY=            -32.0545 XXYY=          -4544.8096 XXZZ=          -3815.2666 YYZZ=          -2544.3492
 XXYZ=             18.0350 YYXZ=            -30.3542 ZZXY=            133.3943
 N-N= 5.860120303877D+03 E-N=-2.454764234975D+04  KE= 5.399270070934D+03
 D1PCM: PCM CHGder 1st derivatives, ID1Alg=3 FixD1E=F DoIter=F DoCFld=F I1PDM=0.
 Calling FoFJK, ICntrl=      2127 FMM=T ISym2X=0 I1Cent= 0 IOpClX= 0 NMat=1 NMatS=1 NMatT=0.
 -------------------------------------------------------------------
 Center     Atomic                   Forces (Hartrees/Bohr)
 Number     Number              X              Y              Z
 -------------------------------------------------------------------
      1       25          -0.000069509   -0.000052245    0.000093202
      2        6           0.000022213   -0.000027508   -0.000009687
      3        8          -0.000005399    0.000010468    0.000001468
      4        6           0.000017261   -0.000074371   -0.000028774
      5        8           0.000006474   -0.000009783    0.000002815
      6        6           0.000002484   -0.000038029   -0.000036307
      7        7          -0.000124438    0.000016400   -0.000080466
      8        6          -0.000008850   -0.000051611    0.000035744
      9        6           0.000002509    0.000004733    0.000017361
     10        6           0.000036080   -0.000002109   -0.000013776
     11        1          -0.000015396    0.000020585   -0.000017860
     12        1           0.000000711    0.000002476   -0.000000586
     13        7           0.000207890    0.000076063   -0.000057300
     14        6          -0.000094212    0.000023556    0.000102293
     15        6          -0.000048498   -0.000009397   -0.000038535
     16        6          -0.000035937    0.000003254   -0.000015635
     17        6          -0.000006394   -0.000016372    0.000001495
     18        6          -0.000182863    0.000091225    0.000097570
     19        1           0.000004423   -0.000014519   -0.000004688
     20        1           0.000230904   -0.000085170   -0.000099878
     21        7          -0.000046872    0.000024489   -0.000001739
     22        6          -0.000000814   -0.000030831   -0.000010849
     23        6           0.000004678    0.000011830   -0.000005199
     24        1          -0.000045237   -0.000015220    0.000039876
     25        6          -0.000004558   -0.000013936   -0.000008803
     26        1          -0.000005329   -0.000008075   -0.000001750
     27        6           0.000030175    0.000016300    0.000004290
     28        1           0.000008149   -0.000003900   -0.000008623
     29        1          -0.000005973   -0.000000781    0.000001652
     30        8           0.000003395    0.000020202    0.000013537
     31        6           0.000047728    0.000003770    0.000115920
     32        6           0.000018453    0.000014370   -0.000050433
     33        6           0.000012286    0.000024153    0.000022750
     34        6           0.000026460    0.000013041   -0.000031213
     35        6          -0.000008246    0.000006896   -0.000004266
     36        6          -0.000000747    0.000004675    0.000009256
     37        6           0.000008998    0.000006508   -0.000008574
     38        6          -0.000019775    0.000001945    0.000027131
     39        6          -0.000021475    0.000019547   -0.000034810
     40        1          -0.000000248    0.000002846    0.000002271
     41        1           0.000004219    0.000004722    0.000003691
     42        1           0.000003431    0.000005524   -0.000002190
     43        6           0.000003879    0.000007752    0.000034855
     44        6           0.000006913   -0.000012368    0.000001755
     45        6           0.000009781    0.000128731   -0.000003432
     46        6          -0.000061373   -0.000264773    0.000009533
     47        6           0.000030858    0.000131726    0.000017177
     48        6           0.000010609   -0.000007099   -0.000041443
     49        1          -0.000002440   -0.000005669    0.000002007
     50        1           0.000010490    0.000082466   -0.000013164
     51        1          -0.000000952   -0.000003794   -0.000003277
     52        6          -0.000000986   -0.000026087   -0.000015138
     53        1           0.000001744    0.000002623   -0.000003309
     54        6          -0.000003685   -0.000022017   -0.000004551
     55        1           0.000002991    0.000000771   -0.000005896
     56        1          -0.000002528    0.000003205    0.000002932
     57        6          -0.000004166   -0.000006192    0.000003668
     58        6           0.000001078    0.000011222    0.000000564
     59        1          -0.000003388   -0.000008614    0.000001627
     60        1          -0.000005118   -0.000007501   -0.000001920
     61       35           0.000002585    0.000024889    0.000010427
     62        1           0.000050884    0.000002597   -0.000022679
     63        1           0.000004675   -0.000007589    0.000009884
 -------------------------------------------------------------------
 Cartesian Forces:  Max     0.000264773 RMS     0.000047031
 NDeriv=    189 NFrqRd=  0 NDerD0=      0 MskFDP=       0 MskDFD=       0 MskDF0=       0
 Re-enter D2Numr:  atom  46 IXYZ=2 step-up   number 1
 Basis read from rwf:  (5D, 7F)
   751 basis functions,  1339 primitive gaussians,   802 cartesian basis functions
   165 alpha electrons      165 beta electrons
       nuclear repulsion energy      5860.1885690748 Hartrees.
 NAtoms=   63 NActive=   63 NUniq=   63 SFac= 1.00D+00 NAtFMM=   60 NAOKFM=T Big=T
 Integral buffers will be    131072 words long.
 Raffenetti 2 integral format.
 Two-electron integral symmetry is turned off.
 Nuclear repulsion after empirical dispersion term =     5860.1255001173 Hartrees.
 ------------------------------------------------------------------------------
 Polarizable Continuum Model (PCM)
 =================================
 Model                : PCM.
 Atomic radii         : UFF (Universal Force Field).
 Polarization charges : Total charges.
 Charge compensation  : None.
 Solution method      : On-the-fly selection.
 Cavity type          : Scaled VdW (van der Waals Surface) (Alpha=1.100).
 Cavity algorithm     : GePol (No added spheres)
                        Default sphere list used, NSphG=   63.
                        Lebedev-Laikov grids with approx.  5.0 points / Ang**2.
                        Smoothing algorithm: York/Karplus (Gamma=1.0000).
                        Polarization charges: spherical gaussians, with
                                              point-specific exponents (IZeta= 3).
                        Self-potential: point-specific (ISelfS= 7).
                        Self-field    : sphere-specific E.n sum rule (ISelfD= 2).
 1st derivatives      : Analytical E(r).r(x)/FMM algorithm (CHGder, D1EAlg=3).
                        Cavity 1st derivative terms included.
 Solvent              : TetraHydroFuran, Eps=   7.425700 Eps(inf)=   1.974025
 ------------------------------------------------------------------------------
 One-electron integrals computed using PRISM.
 NBasis=   751 RedAO= T EigKep=  2.24D-04  NBF=   751
 NBsUse=   751 1.00D-06 EigRej= -1.00D+00 NBFU=   751
 Initial guess from the checkpoint file:  "checkpoint.chk"
 B after Tr=    -0.000000   -0.000034    0.000000
         Rot=    1.000000    0.000004   -0.000000    0.000003 Ang=   0.00 deg.
 Requested convergence on RMS density matrix=1.00D-08 within 128 cycles.
 Requested convergence on MAX density matrix=1.00D-06.
 Requested convergence on             energy=1.00D-06.
 No special actions if energy rises.
 Inv3:  Mode=1 IEnd=    73864332.
 Iteration    1 A*A^-1 deviation from unit magnitude is 3.11D-15 for   1272.
 Iteration    1 A*A^-1 deviation from orthogonality  is 3.17D-15 for   2216    199.
 Iteration    1 A^-1*A deviation from unit magnitude is 3.11D-15 for    585.
 Iteration    1 A^-1*A deviation from orthogonality  is 2.00D-15 for   3755   2498.
 Error on total polarization charges =  0.02143
 SCF Done:  E(RwB97XD) =  -5421.44460075     A.U. after    6 cycles
            NFock=  6  Conv=0.89D-08     -V/T= 2.0041

 **********************************************************************

            Population analysis using the SCF density.

 **********************************************************************

 Alpha  occ. eigenvalues -- -482.95450-235.70868 -62.53491 -56.34054 -56.34042
 Alpha  occ. eigenvalues --  -56.34037 -27.47536 -23.53468 -23.53109 -23.53047
 Alpha  occ. eigenvalues --  -19.34579 -19.34549 -19.34480 -14.50816 -14.50808
 Alpha  occ. eigenvalues --  -14.46642 -10.42153 -10.42149 -10.42107 -10.37155
 Alpha  occ. eigenvalues --  -10.37146 -10.36612 -10.36597 -10.36290 -10.35591
 Alpha  occ. eigenvalues --  -10.34658 -10.34642 -10.34559 -10.34550 -10.33579
 Alpha  occ. eigenvalues --  -10.33563 -10.33446 -10.33343 -10.33330 -10.33279
 Alpha  occ. eigenvalues --  -10.33273 -10.33252 -10.32880 -10.32874 -10.32638
 Alpha  occ. eigenvalues --  -10.32390 -10.32330 -10.32322 -10.32278 -10.32115
 Alpha  occ. eigenvalues --  -10.32032 -10.32002 -10.31995 -10.31848 -10.31845
 Alpha  occ. eigenvalues --   -8.70244  -6.51946  -6.51911  -6.51893  -3.26993
 Alpha  occ. eigenvalues --   -2.62450  -2.62444  -2.62430  -2.62402  -2.62400
 Alpha  occ. eigenvalues --   -2.12858  -2.11933  -2.11838  -1.23595  -1.23522
 Alpha  occ. eigenvalues --   -1.23338  -1.08600  -1.08292  -1.02155  -1.00303
 Alpha  occ. eigenvalues --   -0.97878  -0.97632  -0.94480  -0.93281  -0.91393
 Alpha  occ. eigenvalues --   -0.90866  -0.89860  -0.88166  -0.87492  -0.86416
 Alpha  occ. eigenvalues --   -0.85280  -0.85010  -0.81928  -0.76800  -0.75890
 Alpha  occ. eigenvalues --   -0.75416  -0.75397  -0.74764  -0.74595  -0.74404
 Alpha  occ. eigenvalues --   -0.72311  -0.72001  -0.70290  -0.69013  -0.68211
 Alpha  occ. eigenvalues --   -0.65748  -0.65264  -0.65173  -0.64939  -0.64543
 Alpha  occ. eigenvalues --   -0.64525  -0.62674  -0.62128  -0.61074  -0.60185
 Alpha  occ. eigenvalues --   -0.59149  -0.58430  -0.57661  -0.57535  -0.57259
 Alpha  occ. eigenvalues --   -0.56934  -0.56634  -0.56504  -0.56108  -0.55969
 Alpha  occ. eigenvalues --   -0.55729  -0.55289  -0.54924  -0.54846  -0.54461
 Alpha  occ. eigenvalues --   -0.54383  -0.54049  -0.53365  -0.52994  -0.52542
 Alpha  occ. eigenvalues --   -0.52477  -0.52469  -0.51995  -0.51303  -0.51259
 Alpha  occ. eigenvalues --   -0.51137  -0.51126  -0.50557  -0.49465  -0.49101
 Alpha  occ. eigenvalues --   -0.48548  -0.47988  -0.47408  -0.47318  -0.46044
 Alpha  occ. eigenvalues --   -0.45766  -0.45145  -0.44923  -0.43753  -0.43718
 Alpha  occ. eigenvalues --   -0.43386  -0.42442  -0.41857  -0.41242  -0.40727
 Alpha  occ. eigenvalues --   -0.40365  -0.39660  -0.37837  -0.36580  -0.35653
 Alpha  occ. eigenvalues --   -0.35161  -0.33664  -0.33579  -0.33351  -0.33256
 Alpha  occ. eigenvalues --   -0.32218  -0.29676  -0.29549  -0.29260  -0.28006
 Alpha virt. eigenvalues --   -0.03076  -0.00631  -0.00228   0.00665   0.00885
 Alpha virt. eigenvalues --    0.01822   0.01972   0.02429   0.03948   0.04362
 Alpha virt. eigenvalues --    0.04411   0.06214   0.06763   0.06933   0.08994
 Alpha virt. eigenvalues --    0.09086   0.09320   0.09653   0.10278   0.10457
 Alpha virt. eigenvalues --    0.11515   0.12856   0.13150   0.13653   0.14140
 Alpha virt. eigenvalues --    0.14328   0.14515   0.15208   0.15299   0.15869
 Alpha virt. eigenvalues --    0.15969   0.16678   0.17421   0.17928   0.18748
 Alpha virt. eigenvalues --    0.18765   0.19434   0.19561   0.19965   0.20426
 Alpha virt. eigenvalues --    0.20692   0.21555   0.21947   0.22204   0.22549
 Alpha virt. eigenvalues --    0.22633   0.23076   0.23348   0.23566   0.24793
 Alpha virt. eigenvalues --    0.25805   0.26055   0.26284   0.27058   0.27633
 Alpha virt. eigenvalues --    0.28225   0.29140   0.29835   0.29958   0.30304
 Alpha virt. eigenvalues --    0.30590   0.31065   0.31321   0.31845   0.32137
 Alpha virt. eigenvalues --    0.32258   0.32387   0.32953   0.33573   0.33858
 Alpha virt. eigenvalues --    0.34153   0.34551   0.34959   0.35259   0.35505
 Alpha virt. eigenvalues --    0.35739   0.35879   0.36107   0.36534   0.36617
 Alpha virt. eigenvalues --    0.37667   0.37774   0.38515   0.38708   0.39173
 Alpha virt. eigenvalues --    0.39992   0.40344   0.41294   0.41500   0.42059
 Alpha virt. eigenvalues --    0.42084   0.42416   0.42829   0.44053   0.44123
 Alpha virt. eigenvalues --    0.44659   0.45434   0.45902   0.46661   0.47142
 Alpha virt. eigenvalues --    0.47615   0.47851   0.48132   0.48198   0.48660
 Alpha virt. eigenvalues --    0.49957   0.50343   0.50643   0.50978   0.51236
 Alpha virt. eigenvalues --    0.51387   0.51830   0.52337   0.52571   0.52721
 Alpha virt. eigenvalues --    0.52928   0.53258   0.53612   0.54217   0.54537
 Alpha virt. eigenvalues --    0.54715   0.54939   0.55108   0.55696   0.56044
 Alpha virt. eigenvalues --    0.56168   0.56612   0.57290   0.57443   0.57612
 Alpha virt. eigenvalues --    0.58118   0.58841   0.59166   0.60149   0.60188
 Alpha virt. eigenvalues --    0.60481   0.60537   0.61090   0.61536   0.61562
 Alpha virt. eigenvalues --    0.61655   0.63252   0.63680   0.64162   0.64797
 Alpha virt. eigenvalues --    0.64871   0.65513   0.65574   0.66392   0.66852
 Alpha virt. eigenvalues --    0.67113   0.67512   0.67782   0.67969   0.68594
 Alpha virt. eigenvalues --    0.68665   0.69960   0.70448   0.70464   0.70837
 Alpha virt. eigenvalues --    0.71289   0.71713   0.71841   0.71962   0.72437
 Alpha virt. eigenvalues --    0.72724   0.72906   0.73015   0.73390   0.73444
 Alpha virt. eigenvalues --    0.73851   0.74055   0.74407   0.74728   0.74774
 Alpha virt. eigenvalues --    0.75331   0.75492   0.75676   0.75864   0.76423
 Alpha virt. eigenvalues --    0.76803   0.77011   0.77094   0.77678   0.78345
 Alpha virt. eigenvalues --    0.78429   0.78798   0.79081   0.79463   0.79631
 Alpha virt. eigenvalues --    0.80317   0.80482   0.80642   0.81157   0.81562
 Alpha virt. eigenvalues --    0.81687   0.81748   0.82534   0.82827   0.83703
 Alpha virt. eigenvalues --    0.83883   0.83943   0.84179   0.84542   0.84952
 Alpha virt. eigenvalues --    0.85265   0.85470   0.85589   0.86367   0.86932
 Alpha virt. eigenvalues --    0.86981   0.87337   0.87585   0.87834   0.88091
 Alpha virt. eigenvalues --    0.88432   0.89180   0.89270   0.90109   0.90252
 Alpha virt. eigenvalues --    0.90399   0.91418   0.91566   0.91690   0.92314
 Alpha virt. eigenvalues --    0.93826   0.94114   0.94329   0.94616   0.95171
 Alpha virt. eigenvalues --    0.95552   0.95790   0.96399   0.96947   0.97916
 Alpha virt. eigenvalues --    0.98166   0.98771   0.99050   0.99931   1.01483
 Alpha virt. eigenvalues --    1.01651   1.02258   1.03322   1.04781   1.04871
 Alpha virt. eigenvalues --    1.06583   1.07488   1.08879   1.09257   1.09529
 Alpha virt. eigenvalues --    1.10998   1.11360   1.13138   1.13664   1.14650
 Alpha virt. eigenvalues --    1.14826   1.15073   1.15866   1.16046   1.16211
 Alpha virt. eigenvalues --    1.16940   1.17834   1.18102   1.20812   1.21677
 Alpha virt. eigenvalues --    1.22019   1.22406   1.22966   1.24407   1.24558
 Alpha virt. eigenvalues --    1.24945   1.25173   1.25643   1.26226   1.26294
 Alpha virt. eigenvalues --    1.27538   1.27943   1.28432   1.28484   1.29551
 Alpha virt. eigenvalues --    1.29718   1.30248   1.30696   1.30740   1.30905
 Alpha virt. eigenvalues --    1.31493   1.32318   1.33095   1.33687   1.33905
 Alpha virt. eigenvalues --    1.34207   1.34444   1.34789   1.35318   1.35557
 Alpha virt. eigenvalues --    1.35871   1.35892   1.36200   1.37546   1.37659
 Alpha virt. eigenvalues --    1.38226   1.38352   1.38528   1.40218   1.40708
 Alpha virt. eigenvalues --    1.41968   1.42186   1.43181   1.43369   1.44538
 Alpha virt. eigenvalues --    1.45456   1.46745   1.48075   1.48176   1.49402
 Alpha virt. eigenvalues --    1.50470   1.54890   1.55604   1.55679   1.58904
 Alpha virt. eigenvalues --    1.59143   1.59883   1.62372   1.63630   1.64309
 Alpha virt. eigenvalues --    1.64908   1.65579   1.66560   1.67562   1.67772
 Alpha virt. eigenvalues --    1.68765   1.69730   1.70939   1.71703   1.72026
 Alpha virt. eigenvalues --    1.72838   1.73013   1.73259   1.73684   1.73807
 Alpha virt. eigenvalues --    1.74429   1.74743   1.75046   1.75480   1.76003
 Alpha virt. eigenvalues --    1.77227   1.77264   1.78100   1.78467   1.78660
 Alpha virt. eigenvalues --    1.78734   1.79398   1.79552   1.79945   1.80021
 Alpha virt. eigenvalues --    1.80389   1.80908   1.81462   1.81628   1.81806
 Alpha virt. eigenvalues --    1.81934   1.82092   1.82231   1.82644   1.82947
 Alpha virt. eigenvalues --    1.83416   1.84105   1.84305   1.84701   1.84876
 Alpha virt. eigenvalues --    1.85666   1.86099   1.86402   1.87098   1.87406
 Alpha virt. eigenvalues --    1.87653   1.87873   1.88296   1.89699   1.89768
 Alpha virt. eigenvalues --    1.90381   1.90390   1.91079   1.91255   1.91853
 Alpha virt. eigenvalues --    1.93364   1.94162   1.94322   1.95549   1.96083
 Alpha virt. eigenvalues --    1.96776   1.97087   1.97575   1.98314   1.99282
 Alpha virt. eigenvalues --    1.99393   2.00593   2.01152   2.01431   2.02199
 Alpha virt. eigenvalues --    2.02567   2.02832   2.03213   2.03866   2.04510
 Alpha virt. eigenvalues --    2.04823   2.04995   2.05423   2.05737   2.06135
 Alpha virt. eigenvalues --    2.06934   2.07931   2.09214   2.10063   2.10352
 Alpha virt. eigenvalues --    2.10930   2.11070   2.11850   2.12284   2.13921
 Alpha virt. eigenvalues --    2.14630   2.15519   2.15830   2.16621   2.16715
 Alpha virt. eigenvalues --    2.16847   2.17881   2.18166   2.18592   2.19587
 Alpha virt. eigenvalues --    2.20332   2.20568   2.20892   2.21319   2.21567
 Alpha virt. eigenvalues --    2.23282   2.23573   2.24385   2.24515   2.25804
 Alpha virt. eigenvalues --    2.26116   2.29375   2.29966   2.30742   2.31367
 Alpha virt. eigenvalues --    2.31464   2.31669   2.32813   2.33450   2.34411
 Alpha virt. eigenvalues --    2.34998   2.35843   2.36060   2.36677   2.37392
 Alpha virt. eigenvalues --    2.37632   2.37769   2.38134   2.38458   2.38836
 Alpha virt. eigenvalues --    2.39561   2.39698   2.41342   2.41779   2.42689
 Alpha virt. eigenvalues --    2.44071   2.45205   2.45227   2.46165   2.46723
 Alpha virt. eigenvalues --    2.47510   2.48031   2.49903   2.49982   2.50717
 Alpha virt. eigenvalues --    2.53623   2.54880   2.56234   2.57334   2.59230
 Alpha virt. eigenvalues --    2.60222   2.60994   2.61534   2.63768   2.64677
 Alpha virt. eigenvalues --    2.65770   2.65961   2.66729   2.67003   2.67569
 Alpha virt. eigenvalues --    2.67639   2.68241   2.69480   2.69821   2.69877
 Alpha virt. eigenvalues --    2.70036   2.70324   2.70409   2.70880   2.71112
 Alpha virt. eigenvalues --    2.72109   2.72446   2.72723   2.74319   2.74773
 Alpha virt. eigenvalues --    2.75732   2.77000   2.79231   2.79454   2.80058
 Alpha virt. eigenvalues --    2.80124   2.80339   2.80466   2.81826   2.82261
 Alpha virt. eigenvalues --    2.84527   2.85250   2.85777   2.86413   2.87058
 Alpha virt. eigenvalues --    2.87178   2.89628   2.91418   2.91873   2.94574
 Alpha virt. eigenvalues --    2.95896   2.97864   2.98468   2.99080   3.01340
 Alpha virt. eigenvalues --    3.02742   3.05012   3.05838   3.06159   3.07096
 Alpha virt. eigenvalues --    3.08634   3.09703   3.10251   3.11774   3.12513
 Alpha virt. eigenvalues --    3.15831   3.16231   3.19169   3.19723   3.20318
 Alpha virt. eigenvalues --    3.20731   3.20962   3.21892   3.22245   3.24163
 Alpha virt. eigenvalues --    3.24722   3.29756   3.29915   3.32662   3.32887
 Alpha virt. eigenvalues --    3.38115   3.39038   3.41616   3.45670   3.45952
 Alpha virt. eigenvalues --    3.47220   3.50720   3.52353   3.55487   3.58476
 Alpha virt. eigenvalues --    3.60568   3.62393   3.63151   3.63233   3.63511
 Alpha virt. eigenvalues --    3.63827   3.65784   3.66480   3.71966   3.72714
 Alpha virt. eigenvalues --    3.75731   3.75935   3.76575   3.78847   3.79450
 Alpha virt. eigenvalues --    3.82130   3.85097   3.92417   3.95062   4.02492
 Alpha virt. eigenvalues --    4.08528
 Electronic spatial extent (au):  <R**2>=          25433.5685
 Charge=              0.0000 electrons
 Dipole moment (field-independent basis, Debye):
    X=             19.7658    Y=             14.4261    Z=              0.2459  Tot=             24.4716
 Quadrupole moment (field-independent basis, Debye-Ang):
   XX=           -308.2002   YY=           -250.2925   ZZ=           -219.8939
   XY=            -55.8790   XZ=             -1.6748   YZ=             -1.4377
 Traceless Quadrupole moment (field-independent basis, Debye-Ang):
   XX=            -48.7380   YY=              9.1697   ZZ=             39.5683
   XY=            -55.8790   XZ=             -1.6748   YZ=             -1.4377
 Octapole moment (field-independent basis, Debye-Ang**2):
  XXX=            512.4520  YYY=            116.1244  ZZZ=              1.9775  XYY=           -130.6836
  XXY=            290.7329  XXZ=             12.2625  XZZ=             49.7709  YZZ=             10.7837
  YYZ=             -2.9626  XYZ=            -10.5121
 Hexadecapole moment (field-independent basis, Debye-Ang**3):
 XXXX=         -19177.7844 YYYY=          -7166.1805 ZZZZ=          -5533.8428 XXXY=          -1221.6355
 XXXZ=            -63.8827 YYYX=           -623.3072 YYYZ=             13.4908 ZZZX=             11.9246
 ZZZY=            -32.2728 XXYY=          -4544.7284 XXZZ=          -3815.2917 YYZZ=          -2544.3040
 XXYZ=             17.8019 YYXZ=            -30.3987 ZZXY=            133.5842
 N-N= 5.860125500117D+03 E-N=-2.454765286437D+04  KE= 5.399270223363D+03
 D1PCM: PCM CHGder 1st derivatives, ID1Alg=3 FixD1E=F DoIter=F DoCFld=F I1PDM=0.
 Calling FoFJK, ICntrl=      2127 FMM=T ISym2X=0 I1Cent= 0 IOpClX= 0 NMat=1 NMatS=1 NMatT=0.
 -------------------------------------------------------------------
 Center     Atomic                   Forces (Hartrees/Bohr)
 Number     Number              X              Y              Z
 -------------------------------------------------------------------
      1       25          -0.000069109   -0.000052058    0.000092969
      2        6           0.000022121   -0.000027578   -0.000009579
      3        8          -0.000005391    0.000010484    0.000001422
      4        6           0.000017174   -0.000073944   -0.000028793
      5        8           0.000006478   -0.000009920    0.000002850
      6        6           0.000002392   -0.000038454   -0.000035949
      7        7          -0.000124234    0.000016471   -0.000080383
      8        6          -0.000008875   -0.000051634    0.000035751
      9        6           0.000002572    0.000004726    0.000017341
     10        6           0.000036009   -0.000002216   -0.000013953
     11        1          -0.000015415    0.000020603   -0.000017839
     12        1           0.000000721    0.000002506   -0.000000569
     13        7           0.000207808    0.000076118   -0.000057191
     14        6          -0.000094125    0.000023358    0.000102295
     15        6          -0.000048520   -0.000009333   -0.000038544
     16        6          -0.000035941    0.000003303   -0.000015637
     17        6          -0.000006399   -0.000016361    0.000001496
     18        6          -0.000182888    0.000091245    0.000097575
     19        1           0.000004431   -0.000014530   -0.000004689
     20        1           0.000230899   -0.000085187   -0.000099876
     21        7          -0.000047368    0.000025491   -0.000004796
     22        6           0.000000977   -0.000030465   -0.000012386
     23        6           0.000000479    0.000010693   -0.000004636
     24        1          -0.000045432   -0.000015102    0.000039890
     25        6          -0.000004587   -0.000013990   -0.000008855
     26        1          -0.000005323   -0.000008066   -0.000001752
     27        6           0.000029335    0.000014779    0.000005471
     28        1           0.000008113   -0.000003782   -0.000008485
     29        1          -0.000005979   -0.000000783    0.000001653
     30        8           0.000003342    0.000020406    0.000013432
     31        6           0.000046463    0.000001024    0.000122982
     32        6           0.000018312    0.000031933   -0.000042729
     33        6           0.000012356    0.000024114    0.000022731
     34        6           0.000026023    0.000013422   -0.000029207
     35        6          -0.000010081    0.000006639   -0.000005206
     36        6           0.000001044    0.000005006    0.000008362
     37        6           0.000009248    0.000004464   -0.000006657
     38        6          -0.000016223    0.000000545    0.000022872
     39        6          -0.000024507    0.000022549   -0.000039169
     40        1          -0.000000293    0.000002699    0.000002313
     41        1           0.000004259    0.000005046    0.000003774
     42        1           0.000003467    0.000005509   -0.000002176
     43        6           0.000004451   -0.000019857    0.000024698
     44        6           0.000009996    0.000021498   -0.000002382
     45        6          -0.000005695   -0.000121241   -0.000006381
     46        6           0.000051528    0.000274921   -0.000009000
     47        6          -0.000028063   -0.000126871    0.000002554
     48        6           0.000002155    0.000025308   -0.000020209
     49        1          -0.000004779    0.000016823   -0.000002008
     50        1          -0.000009461   -0.000069427    0.000014115
     51        1          -0.000008266    0.000010899   -0.000001898
     52        6          -0.000005160    0.000005880   -0.000016675
     53        1           0.000000951    0.000002862   -0.000003332
     54        6           0.000001887   -0.000022692   -0.000004414
     55        1           0.000002763    0.000001213   -0.000005707
     56        1          -0.000002608    0.000003299    0.000002985
     57        6          -0.000004166   -0.000006188    0.000003667
     58        6           0.000001081    0.000011243    0.000000563
     59        1          -0.000003389   -0.000008615    0.000001627
     60        1          -0.000005118   -0.000007506   -0.000001922
     61       35           0.000002533    0.000024900    0.000010430
     62        1           0.000050947    0.000002823   -0.000022667
     63        1           0.000005080   -0.000009000    0.000009831
 -------------------------------------------------------------------
 Cartesian Forces:  Max     0.000274921 RMS     0.000046998
 NDeriv=    189 NFrqRd=  0 NDerD0=      0 MskFDP=       0 MskDFD=       0 MskDF0=       0
 Re-enter D2Numr:  atom  46 IXYZ=2 step-down number 1
 Basis read from rwf:  (5D, 7F)
   751 basis functions,  1339 primitive gaussians,   802 cartesian basis functions
   165 alpha electrons      165 beta electrons
       nuclear repulsion energy      5860.2101884823 Hartrees.
 NAtoms=   63 NActive=   63 NUniq=   63 SFac= 1.00D+00 NAtFMM=   60 NAOKFM=T Big=T
 Integral buffers will be    131072 words long.
 Raffenetti 2 integral format.
 Two-electron integral symmetry is turned off.
 Nuclear repulsion after empirical dispersion term =     5860.1471193699 Hartrees.
 ------------------------------------------------------------------------------
 Polarizable Continuum Model (PCM)
 =================================
 Model                : PCM.
 Atomic radii         : UFF (Universal Force Field).
 Polarization charges : Total charges.
 Charge compensation  : None.
 Solution method      : On-the-fly selection.
 Cavity type          : Scaled VdW (van der Waals Surface) (Alpha=1.100).
 Cavity algorithm     : GePol (No added spheres)
                        Default sphere list used, NSphG=   63.
                        Lebedev-Laikov grids with approx.  5.0 points / Ang**2.
                        Smoothing algorithm: York/Karplus (Gamma=1.0000).
                        Polarization charges: spherical gaussians, with
                                              point-specific exponents (IZeta= 3).
                        Self-potential: point-specific (ISelfS= 7).
                        Self-field    : sphere-specific E.n sum rule (ISelfD= 2).
 1st derivatives      : Analytical E(r).r(x)/FMM algorithm (CHGder, D1EAlg=3).
                        Cavity 1st derivative terms included.
 Solvent              : TetraHydroFuran, Eps=   7.425700 Eps(inf)=   1.974025
 ------------------------------------------------------------------------------
 One-electron integrals computed using PRISM.
 NBasis=   751 RedAO= T EigKep=  2.24D-04  NBF=   751
 NBsUse=   751 1.00D-06 EigRej= -1.00D+00 NBFU=   751
 Initial guess from the checkpoint file:  "checkpoint.chk"
 B after Tr=     0.000000    0.000000    0.000034
         Rot=    1.000000   -0.000001    0.000003   -0.000000 Ang=  -0.00 deg.
 Requested convergence on RMS density matrix=1.00D-08 within 128 cycles.
 Requested convergence on MAX density matrix=1.00D-06.
 Requested convergence on             energy=1.00D-06.
 No special actions if energy rises.
 Inv3:  Mode=1 IEnd=    73864332.
 Iteration    1 A*A^-1 deviation from unit magnitude is 3.55D-15 for    763.
 Iteration    1 A*A^-1 deviation from orthogonality  is 2.20D-15 for   2248    157.
 Iteration    1 A^-1*A deviation from unit magnitude is 3.44D-15 for   3765.
 Iteration    1 A^-1*A deviation from orthogonality  is 2.22D-15 for   2778   1883.
 Error on total polarization charges =  0.02143
 SCF Done:  E(RwB97XD) =  -5421.44459959     A.U. after    8 cycles
            NFock=  8  Conv=0.10D-07     -V/T= 2.0041

 **********************************************************************

            Population analysis using the SCF density.

 **********************************************************************

 Alpha  occ. eigenvalues -- -482.95450-235.70868 -62.53491 -56.34054 -56.34042
 Alpha  occ. eigenvalues --  -56.34037 -27.47536 -23.53468 -23.53109 -23.53047
 Alpha  occ. eigenvalues --  -19.34579 -19.34549 -19.34480 -14.50816 -14.50808
 Alpha  occ. eigenvalues --  -14.46642 -10.42153 -10.42149 -10.42107 -10.37155
 Alpha  occ. eigenvalues --  -10.37146 -10.36612 -10.36597 -10.36290 -10.35591
 Alpha  occ. eigenvalues --  -10.34657 -10.34642 -10.34560 -10.34550 -10.33579
 Alpha  occ. eigenvalues --  -10.33563 -10.33446 -10.33343 -10.33330 -10.33278
 Alpha  occ. eigenvalues --  -10.33272 -10.33252 -10.32879 -10.32874 -10.32638
 Alpha  occ. eigenvalues --  -10.32390 -10.32330 -10.32322 -10.32278 -10.32114
 Alpha  occ. eigenvalues --  -10.32032 -10.31995 -10.31992 -10.31845 -10.31845
 Alpha  occ. eigenvalues --   -8.70244  -6.51946  -6.51911  -6.51893  -3.26993
 Alpha  occ. eigenvalues --   -2.62450  -2.62444  -2.62430  -2.62402  -2.62400
 Alpha  occ. eigenvalues --   -2.12858  -2.11933  -2.11838  -1.23595  -1.23522
 Alpha  occ. eigenvalues --   -1.23338  -1.08601  -1.08293  -1.02156  -1.00303
 Alpha  occ. eigenvalues --   -0.97879  -0.97633  -0.94480  -0.93282  -0.91395
 Alpha  occ. eigenvalues --   -0.90867  -0.89861  -0.88166  -0.87492  -0.86416
 Alpha  occ. eigenvalues --   -0.85281  -0.85010  -0.81931  -0.76800  -0.75891
 Alpha  occ. eigenvalues --   -0.75417  -0.75397  -0.74764  -0.74595  -0.74402
 Alpha  occ. eigenvalues --   -0.72311  -0.72001  -0.70290  -0.69012  -0.68211
 Alpha  occ. eigenvalues --   -0.65748  -0.65264  -0.65173  -0.64938  -0.64543
 Alpha  occ. eigenvalues --   -0.64523  -0.62674  -0.62129  -0.61074  -0.60186
 Alpha  occ. eigenvalues --   -0.59149  -0.58430  -0.57659  -0.57535  -0.57259
 Alpha  occ. eigenvalues --   -0.56934  -0.56634  -0.56505  -0.56108  -0.55970
 Alpha  occ. eigenvalues --   -0.55729  -0.55289  -0.54922  -0.54846  -0.54461
 Alpha  occ. eigenvalues --   -0.54383  -0.54049  -0.53365  -0.52994  -0.52542
 Alpha  occ. eigenvalues --   -0.52476  -0.52468  -0.51995  -0.51303  -0.51259
 Alpha  occ. eigenvalues --   -0.51137  -0.51126  -0.50557  -0.49464  -0.49100
 Alpha  occ. eigenvalues --   -0.48550  -0.47988  -0.47406  -0.47319  -0.46044
 Alpha  occ. eigenvalues --   -0.45766  -0.45145  -0.44919  -0.43754  -0.43717
 Alpha  occ. eigenvalues --   -0.43386  -0.42442  -0.41856  -0.41241  -0.40729
 Alpha  occ. eigenvalues --   -0.40365  -0.39660  -0.37837  -0.36580  -0.35653
 Alpha  occ. eigenvalues --   -0.35161  -0.33666  -0.33579  -0.33350  -0.33256
 Alpha  occ. eigenvalues --   -0.32218  -0.29676  -0.29549  -0.29260  -0.28009
 Alpha virt. eigenvalues --   -0.03073  -0.00631  -0.00228   0.00665   0.00885
 Alpha virt. eigenvalues --    0.01822   0.01972   0.02430   0.03948   0.04362
 Alpha virt. eigenvalues --    0.04411   0.06215   0.06763   0.06935   0.08994
 Alpha virt. eigenvalues --    0.09086   0.09321   0.09653   0.10278   0.10457
 Alpha virt. eigenvalues --    0.11518   0.12856   0.13149   0.13653   0.14140
 Alpha virt. eigenvalues --    0.14328   0.14511   0.15203   0.15299   0.15869
 Alpha virt. eigenvalues --    0.15968   0.16678   0.17420   0.17928   0.18748
 Alpha virt. eigenvalues --    0.18766   0.19435   0.19561   0.19965   0.20426
 Alpha virt. eigenvalues --    0.20691   0.21556   0.21948   0.22204   0.22549
 Alpha virt. eigenvalues --    0.22633   0.23076   0.23348   0.23566   0.24792
 Alpha virt. eigenvalues --    0.25805   0.26055   0.26284   0.27058   0.27634
 Alpha virt. eigenvalues --    0.28224   0.29140   0.29835   0.29957   0.30304
 Alpha virt. eigenvalues --    0.30591   0.31066   0.31322   0.31845   0.32137
 Alpha virt. eigenvalues --    0.32263   0.32386   0.32953   0.33573   0.33857
 Alpha virt. eigenvalues --    0.34154   0.34554   0.34959   0.35259   0.35505
 Alpha virt. eigenvalues --    0.35741   0.35879   0.36111   0.36534   0.36616
 Alpha virt. eigenvalues --    0.37667   0.37773   0.38517   0.38708   0.39172
 Alpha virt. eigenvalues --    0.39993   0.40344   0.41294   0.41500   0.42060
 Alpha virt. eigenvalues --    0.42085   0.42417   0.42829   0.44054   0.44123
 Alpha virt. eigenvalues --    0.44657   0.45435   0.45903   0.46661   0.47142
 Alpha virt. eigenvalues --    0.47615   0.47851   0.48130   0.48199   0.48663
 Alpha virt. eigenvalues --    0.49957   0.50345   0.50642   0.50979   0.51233
 Alpha virt. eigenvalues --    0.51387   0.51830   0.52338   0.52571   0.52723
 Alpha virt. eigenvalues --    0.52931   0.53257   0.53612   0.54216   0.54539
 Alpha virt. eigenvalues --    0.54714   0.54934   0.55109   0.55694   0.56047
 Alpha virt. eigenvalues --    0.56171   0.56608   0.57291   0.57442   0.57612
 Alpha virt. eigenvalues --    0.58117   0.58841   0.59166   0.60149   0.60188
 Alpha virt. eigenvalues --    0.60481   0.60536   0.61090   0.61537   0.61563
 Alpha virt. eigenvalues --    0.61655   0.63254   0.63679   0.64165   0.64797
 Alpha virt. eigenvalues --    0.64872   0.65512   0.65575   0.66391   0.66852
 Alpha virt. eigenvalues --    0.67113   0.67512   0.67783   0.67969   0.68594
 Alpha virt. eigenvalues --    0.68665   0.69959   0.70447   0.70465   0.70837
 Alpha virt. eigenvalues --    0.71288   0.71714   0.71842   0.71960   0.72433
 Alpha virt. eigenvalues --    0.72724   0.72902   0.73015   0.73389   0.73445
 Alpha virt. eigenvalues --    0.73851   0.74054   0.74407   0.74727   0.74773
 Alpha virt. eigenvalues --    0.75330   0.75490   0.75676   0.75864   0.76424
 Alpha virt. eigenvalues --    0.76803   0.77011   0.77094   0.77676   0.78346
 Alpha virt. eigenvalues --    0.78428   0.78798   0.79081   0.79464   0.79631
 Alpha virt. eigenvalues --    0.80318   0.80483   0.80643   0.81157   0.81562
 Alpha virt. eigenvalues --    0.81687   0.81748   0.82535   0.82827   0.83704
 Alpha virt. eigenvalues --    0.83883   0.83944   0.84180   0.84541   0.84952
 Alpha virt. eigenvalues --    0.85263   0.85470   0.85591   0.86367   0.86932
 Alpha virt. eigenvalues --    0.86983   0.87338   0.87604   0.87839   0.88091
 Alpha virt. eigenvalues --    0.88434   0.89186   0.89272   0.90111   0.90254
 Alpha virt. eigenvalues --    0.90399   0.91416   0.91569   0.91691   0.92315
 Alpha virt. eigenvalues --    0.93826   0.94113   0.94330   0.94616   0.95171
 Alpha virt. eigenvalues --    0.95553   0.95790   0.96398   0.96945   0.97916
 Alpha virt. eigenvalues --    0.98169   0.98771   0.99050   0.99928   1.01487
 Alpha virt. eigenvalues --    1.01650   1.02258   1.03322   1.04783   1.04871
 Alpha virt. eigenvalues --    1.06583   1.07488   1.08879   1.09256   1.09530
 Alpha virt. eigenvalues --    1.10998   1.11361   1.13139   1.13664   1.14650
 Alpha virt. eigenvalues --    1.14826   1.15072   1.15866   1.16047   1.16214
 Alpha virt. eigenvalues --    1.16940   1.17832   1.18102   1.20812   1.21678
 Alpha virt. eigenvalues --    1.22020   1.22400   1.22964   1.24408   1.24562
 Alpha virt. eigenvalues --    1.24945   1.25173   1.25643   1.26221   1.26293
 Alpha virt. eigenvalues --    1.27538   1.27953   1.28438   1.28486   1.29549
 Alpha virt. eigenvalues --    1.29717   1.30258   1.30696   1.30740   1.30906
 Alpha virt. eigenvalues --    1.31497   1.32315   1.33092   1.33687   1.33905
 Alpha virt. eigenvalues --    1.34207   1.34449   1.34788   1.35320   1.35556
 Alpha virt. eigenvalues --    1.35871   1.35895   1.36200   1.37548   1.37660
 Alpha virt. eigenvalues --    1.38225   1.38353   1.38527   1.40218   1.40708
 Alpha virt. eigenvalues --    1.41967   1.42184   1.43185   1.43371   1.44537
 Alpha virt. eigenvalues --    1.45456   1.46746   1.48079   1.48174   1.49401
 Alpha virt. eigenvalues --    1.50471   1.54889   1.55607   1.55679   1.58905
 Alpha virt. eigenvalues --    1.59143   1.59885   1.62371   1.63632   1.64308
 Alpha virt. eigenvalues --    1.64907   1.65579   1.66560   1.67563   1.67774
 Alpha virt. eigenvalues --    1.68765   1.69731   1.70941   1.71702   1.72026
 Alpha virt. eigenvalues --    1.72837   1.73013   1.73258   1.73683   1.73805
 Alpha virt. eigenvalues --    1.74428   1.74744   1.75047   1.75484   1.76003
 Alpha virt. eigenvalues --    1.77225   1.77267   1.78099   1.78472   1.78661
 Alpha virt. eigenvalues --    1.78737   1.79396   1.79549   1.79941   1.80023
 Alpha virt. eigenvalues --    1.80389   1.80906   1.81462   1.81628   1.81805
 Alpha virt. eigenvalues --    1.81932   1.82091   1.82234   1.82644   1.82945
 Alpha virt. eigenvalues --    1.83416   1.84107   1.84305   1.84704   1.84878
 Alpha virt. eigenvalues --    1.85665   1.86103   1.86403   1.87098   1.87406
 Alpha virt. eigenvalues --    1.87653   1.87877   1.88295   1.89699   1.89768
 Alpha virt. eigenvalues --    1.90382   1.90390   1.91081   1.91255   1.91855
 Alpha virt. eigenvalues --    1.93365   1.94162   1.94323   1.95549   1.96080
 Alpha virt. eigenvalues --    1.96775   1.97087   1.97572   1.98314   1.99282
 Alpha virt. eigenvalues --    1.99391   2.00592   2.01150   2.01427   2.02199
 Alpha virt. eigenvalues --    2.02560   2.02834   2.03211   2.03855   2.04510
 Alpha virt. eigenvalues --    2.04821   2.04995   2.05423   2.05737   2.06133
 Alpha virt. eigenvalues --    2.06932   2.07934   2.09212   2.10056   2.10355
 Alpha virt. eigenvalues --    2.10928   2.11071   2.11846   2.12283   2.13921
 Alpha virt. eigenvalues --    2.14629   2.15517   2.15835   2.16620   2.16714
 Alpha virt. eigenvalues --    2.16847   2.17880   2.18163   2.18592   2.19588
 Alpha virt. eigenvalues --    2.20334   2.20567   2.20890   2.21319   2.21566
 Alpha virt. eigenvalues --    2.23280   2.23573   2.24378   2.24520   2.25804
 Alpha virt. eigenvalues --    2.26115   2.29376   2.29970   2.30740   2.31366
 Alpha virt. eigenvalues --    2.31467   2.31668   2.32814   2.33451   2.34418
 Alpha virt. eigenvalues --    2.34998   2.35840   2.36062   2.36681   2.37392
 Alpha virt. eigenvalues --    2.37645   2.37772   2.38133   2.38456   2.38837
 Alpha virt. eigenvalues --    2.39567   2.39701   2.41342   2.41779   2.42681
 Alpha virt. eigenvalues --    2.44064   2.45207   2.45224   2.46164   2.46727
 Alpha virt. eigenvalues --    2.47510   2.48029   2.49903   2.49979   2.50722
 Alpha virt. eigenvalues --    2.53628   2.54883   2.56242   2.57334   2.59230
 Alpha virt. eigenvalues --    2.60225   2.60993   2.61545   2.63766   2.64686
 Alpha virt. eigenvalues --    2.65772   2.65973   2.66730   2.67003   2.67568
 Alpha virt. eigenvalues --    2.67639   2.68240   2.69480   2.69821   2.69877
 Alpha virt. eigenvalues --    2.70036   2.70324   2.70409   2.70880   2.71112
 Alpha virt. eigenvalues --    2.72110   2.72447   2.72724   2.74332   2.74770
 Alpha virt. eigenvalues --    2.75740   2.77000   2.79230   2.79454   2.80058
 Alpha virt. eigenvalues --    2.80124   2.80333   2.80466   2.81791   2.82238
 Alpha virt. eigenvalues --    2.84523   2.85254   2.85779   2.86414   2.87058
 Alpha virt. eigenvalues --    2.87185   2.89626   2.91417   2.91873   2.94574
 Alpha virt. eigenvalues --    2.95900   2.97858   2.98463   2.99080   3.01317
 Alpha virt. eigenvalues --    3.02746   3.05014   3.05855   3.06159   3.07093
 Alpha virt. eigenvalues --    3.08640   3.09707   3.10250   3.11766   3.12506
 Alpha virt. eigenvalues --    3.15846   3.16231   3.19164   3.19723   3.20317
 Alpha virt. eigenvalues --    3.20731   3.20964   3.21892   3.22245   3.24163
 Alpha virt. eigenvalues --    3.24722   3.29757   3.29915   3.32662   3.32890
 Alpha virt. eigenvalues --    3.38116   3.39038   3.41618   3.45670   3.45952
 Alpha virt. eigenvalues --    3.47220   3.50724   3.52353   3.55487   3.58476
 Alpha virt. eigenvalues --    3.60568   3.62394   3.63151   3.63233   3.63520
 Alpha virt. eigenvalues --    3.63826   3.65788   3.66481   3.71971   3.72719
 Alpha virt. eigenvalues --    3.75731   3.75935   3.76575   3.78847   3.79450
 Alpha virt. eigenvalues --    3.82130   3.85097   3.92417   3.95062   4.02492
 Alpha virt. eigenvalues --    4.08528
 Electronic spatial extent (au):  <R**2>=          25433.4505
 Charge=              0.0000 electrons
 Dipole moment (field-independent basis, Debye):
    X=             19.7644    Y=             14.4253    Z=              0.2455  Tot=             24.4700
 Quadrupole moment (field-independent basis, Debye-Ang):
   XX=           -308.2105   YY=           -250.2921   ZZ=           -219.8973
   XY=            -55.8844   XZ=             -1.6708   YZ=             -1.4345
 Traceless Quadrupole moment (field-independent basis, Debye-Ang):
   XX=            -48.7439   YY=              9.1745   ZZ=             39.5693
   XY=            -55.8844   XZ=             -1.6708   YZ=             -1.4345
 Octapole moment (field-independent basis, Debye-Ang**2):
  XXX=            512.3810  YYY=            116.1080  ZZZ=              1.9766  XYY=           -130.6844
  XXY=            290.6936  XXZ=             12.3005  XZZ=             49.7244  YZZ=             10.7625
  YYZ=             -2.9671  XYZ=            -10.4905
 Hexadecapole moment (field-independent basis, Debye-Ang**3):
 XXXX=         -19178.2033 YYYY=          -7166.2159 ZZZZ=          -5533.7784 XXXY=          -1221.9342
 XXXZ=            -63.6300 YYYX=           -623.3999 YYYZ=             13.5440 ZZZX=             12.0677
 ZZZY=            -32.1510 XXYY=          -4544.7379 XXZZ=          -3815.6140 YYZZ=          -2544.2870
 XXYZ=             17.9561 YYXZ=            -30.4172 ZZXY=            133.4511
 N-N= 5.860147119370D+03 E-N=-2.454769687502D+04  KE= 5.399271374279D+03
 D1PCM: PCM CHGder 1st derivatives, ID1Alg=3 FixD1E=F DoIter=F DoCFld=F I1PDM=0.
 Calling FoFJK, ICntrl=      2127 FMM=T ISym2X=0 I1Cent= 0 IOpClX= 0 NMat=1 NMatS=1 NMatT=0.
 -------------------------------------------------------------------
 Center     Atomic                   Forces (Hartrees/Bohr)
 Number     Number              X              Y              Z
 -------------------------------------------------------------------
      1       25          -0.000069337   -0.000052089    0.000093133
      2        6           0.000022152   -0.000027601   -0.000009647
      3        8          -0.000005393    0.000010486    0.000001457
      4        6           0.000017098   -0.000074297   -0.000028668
      5        8           0.000006555   -0.000009752    0.000002737
      6        6           0.000002500   -0.000038315   -0.000036025
      7        7          -0.000124527    0.000016426   -0.000080503
      8        6          -0.000008800   -0.000051553    0.000035748
      9        6           0.000002439    0.000004669    0.000017371
     10        6           0.000036159   -0.000002036   -0.000013706
     11        1          -0.000015423    0.000020593   -0.000017851
     12        1           0.000000735    0.000002446   -0.000000570
     13        7           0.000207921    0.000076042   -0.000057344
     14        6          -0.000094209    0.000023535    0.000102304
     15        6          -0.000048509   -0.000009385   -0.000038530
     16        6          -0.000035941    0.000003277   -0.000015640
     17        6          -0.000006389   -0.000016372    0.000001488
     18        6          -0.000182878    0.000091227    0.000097571
     19        1           0.000004425   -0.000014518   -0.000004679
     20        1           0.000230902   -0.000085175   -0.000099873
     21        7          -0.000046834    0.000023943   -0.000003561
     22        6          -0.000000461   -0.000030957   -0.000011748
     23        6           0.000004077    0.000011053   -0.000004426
     24        1          -0.000045286   -0.000015214    0.000039870
     25        6          -0.000004582   -0.000014027   -0.000008866
     26        1          -0.000005340   -0.000008085   -0.000001741
     27        6           0.000029962    0.000016022    0.000004530
     28        1           0.000008083   -0.000003724   -0.000008465
     29        1          -0.000005979   -0.000000784    0.000001656
     30        8           0.000003317    0.000020355    0.000013445
     31        6           0.000049112    0.000002036    0.000098995
     32        6           0.000005152    0.000024223   -0.000075580
     33        6           0.000012349    0.000024100    0.000022840
     34        6           0.000027226    0.000013785   -0.000036617
     35        6          -0.000003292    0.000006799   -0.000000845
     36        6          -0.000007242    0.000004063    0.000012197
     37        6           0.000007525    0.000005595   -0.000015558
     38        6          -0.000029872    0.000000804    0.000043144
     39        6          -0.000011486    0.000020599   -0.000023224
     40        1          -0.000000212    0.000002848    0.000002369
     41        1           0.000004155    0.000004893    0.000003935
     42        1           0.000003560    0.000005557   -0.000002279
     43        6           0.000026459   -0.000004320    0.000064989
     44        6           0.000012085    0.000001780    0.000117228
     45        6           0.000313508    0.000008995    0.000683208
     46        6          -0.000022258    0.000014373   -0.001511774
     47        6          -0.000060051    0.000001992    0.000246133
     48        6          -0.000042558    0.000005407   -0.000089022
     49        1          -0.000011348    0.000006488   -0.000008673
     50        1          -0.000233871   -0.000005925    0.000526615
     51        1           0.000047616    0.000006915   -0.000010376
     52        6          -0.000009376   -0.000010668   -0.000007709
     53        1           0.000001116    0.000003322   -0.000003042
     54        6          -0.000001824   -0.000022058   -0.000004871
     55        1           0.000002647    0.000001114   -0.000005504
     56        1          -0.000002544    0.000003194    0.000003050
     57        6          -0.000004166   -0.000006195    0.000003667
     58        6           0.000001083    0.000011230    0.000000562
     59        1          -0.000003385   -0.000008616    0.000001629
     60        1          -0.000005116   -0.000007506   -0.000001919
     61       35           0.000002597    0.000024896    0.000010409
     62        1           0.000051311    0.000002502   -0.000023075
     63        1           0.000004664   -0.000008411    0.000009631
 -------------------------------------------------------------------
 Cartesian Forces:  Max     0.001511774 RMS     0.000137580
 NDeriv=    189 NFrqRd=  0 NDerD0=      0 MskFDP=       0 MskDFD=       0 MskDF0=       0
 Re-enter D2Numr:  atom  46 IXYZ=3 step-up   number 1
 Basis read from rwf:  (5D, 7F)
   751 basis functions,  1339 primitive gaussians,   802 cartesian basis functions
   165 alpha electrons      165 beta electrons
       nuclear repulsion energy      5860.1617868947 Hartrees.
 NAtoms=   63 NActive=   63 NUniq=   63 SFac= 1.00D+00 NAtFMM=   60 NAOKFM=T Big=T
 Integral buffers will be    131072 words long.
 Raffenetti 2 integral format.
 Two-electron integral symmetry is turned off.
 Nuclear repulsion after empirical dispersion term =     5860.0987181041 Hartrees.
 ------------------------------------------------------------------------------
 Polarizable Continuum Model (PCM)
 =================================
 Model                : PCM.
 Atomic radii         : UFF (Universal Force Field).
 Polarization charges : Total charges.
 Charge compensation  : None.
 Solution method      : On-the-fly selection.
 Cavity type          : Scaled VdW (van der Waals Surface) (Alpha=1.100).
 Cavity algorithm     : GePol (No added spheres)
                        Default sphere list used, NSphG=   63.
                        Lebedev-Laikov grids with approx.  5.0 points / Ang**2.
                        Smoothing algorithm: York/Karplus (Gamma=1.0000).
                        Polarization charges: spherical gaussians, with
                                              point-specific exponents (IZeta= 3).
                        Self-potential: point-specific (ISelfS= 7).
                        Self-field    : sphere-specific E.n sum rule (ISelfD= 2).
 1st derivatives      : Analytical E(r).r(x)/FMM algorithm (CHGder, D1EAlg=3).
                        Cavity 1st derivative terms included.
 Solvent              : TetraHydroFuran, Eps=   7.425700 Eps(inf)=   1.974025
 ------------------------------------------------------------------------------
 One-electron integrals computed using PRISM.
 NBasis=   751 RedAO= T EigKep=  2.24D-04  NBF=   751
 NBsUse=   751 1.00D-06 EigRej= -1.00D+00 NBFU=   751
 Initial guess from the checkpoint file:  "checkpoint.chk"
 B after Tr=    -0.000000   -0.000000   -0.000034
         Rot=    1.000000    0.000001   -0.000003   -0.000000 Ang=   0.00 deg.
 Requested convergence on RMS density matrix=1.00D-08 within 128 cycles.
 Requested convergence on MAX density matrix=1.00D-06.
 Requested convergence on             energy=1.00D-06.
 No special actions if energy rises.
 Inv3:  Mode=1 IEnd=    73864332.
 Iteration    1 A*A^-1 deviation from unit magnitude is 3.55D-15 for   1271.
 Iteration    1 A*A^-1 deviation from orthogonality  is 4.15D-15 for   3930   3602.
 Iteration    1 A^-1*A deviation from unit magnitude is 3.77D-15 for   1271.
 Iteration    1 A^-1*A deviation from orthogonality  is 2.44D-15 for   2778   1883.
 Error on total polarization charges =  0.02143
 SCF Done:  E(RwB97XD) =  -5421.44459959     A.U. after    8 cycles
            NFock=  8  Conv=0.99D-08     -V/T= 2.0041

 **********************************************************************

            Population analysis using the SCF density.

 **********************************************************************

 Alpha  occ. eigenvalues -- -482.95450-235.70868 -62.53491 -56.34054 -56.34042
 Alpha  occ. eigenvalues --  -56.34037 -27.47536 -23.53468 -23.53109 -23.53047
 Alpha  occ. eigenvalues --  -19.34579 -19.34549 -19.34480 -14.50816 -14.50808
 Alpha  occ. eigenvalues --  -14.46642 -10.42153 -10.42149 -10.42107 -10.37155
 Alpha  occ. eigenvalues --  -10.37146 -10.36611 -10.36597 -10.36290 -10.35591
 Alpha  occ. eigenvalues --  -10.34658 -10.34642 -10.34559 -10.34550 -10.33578
 Alpha  occ. eigenvalues --  -10.33564 -10.33446 -10.33342 -10.33330 -10.33279
 Alpha  occ. eigenvalues --  -10.33274 -10.33252 -10.32882 -10.32874 -10.32638
 Alpha  occ. eigenvalues --  -10.32390 -10.32331 -10.32322 -10.32278 -10.32116
 Alpha  occ. eigenvalues --  -10.32032 -10.32011 -10.31996 -10.31852 -10.31845
 Alpha  occ. eigenvalues --   -8.70244  -6.51946  -6.51911  -6.51893  -3.26992
 Alpha  occ. eigenvalues --   -2.62450  -2.62444  -2.62430  -2.62402  -2.62400
 Alpha  occ. eigenvalues --   -2.12858  -2.11933  -2.11838  -1.23595  -1.23522
 Alpha  occ. eigenvalues --   -1.23338  -1.08600  -1.08292  -1.02155  -1.00302
 Alpha  occ. eigenvalues --   -0.97878  -0.97629  -0.94480  -0.93279  -0.91390
 Alpha  occ. eigenvalues --   -0.90866  -0.89859  -0.88166  -0.87492  -0.86416
 Alpha  occ. eigenvalues --   -0.85280  -0.85010  -0.81926  -0.76799  -0.75890
 Alpha  occ. eigenvalues --   -0.75416  -0.75396  -0.74764  -0.74595  -0.74406
 Alpha  occ. eigenvalues --   -0.72311  -0.72000  -0.70290  -0.69012  -0.68211
 Alpha  occ. eigenvalues --   -0.65748  -0.65265  -0.65173  -0.64940  -0.64544
 Alpha  occ. eigenvalues --   -0.64527  -0.62673  -0.62127  -0.61074  -0.60185
 Alpha  occ. eigenvalues --   -0.59149  -0.58430  -0.57663  -0.57535  -0.57259
 Alpha  occ. eigenvalues --   -0.56934  -0.56633  -0.56504  -0.56108  -0.55968
 Alpha  occ. eigenvalues --   -0.55728  -0.55289  -0.54927  -0.54846  -0.54461
 Alpha  occ. eigenvalues --   -0.54384  -0.54049  -0.53366  -0.52994  -0.52541
 Alpha  occ. eigenvalues --   -0.52477  -0.52469  -0.51995  -0.51303  -0.51259
 Alpha  occ. eigenvalues --   -0.51136  -0.51127  -0.50557  -0.49465  -0.49102
 Alpha  occ. eigenvalues --   -0.48547  -0.47988  -0.47410  -0.47315  -0.46044
 Alpha  occ. eigenvalues --   -0.45766  -0.45145  -0.44926  -0.43752  -0.43719
 Alpha  occ. eigenvalues --   -0.43386  -0.42443  -0.41857  -0.41242  -0.40725
 Alpha  occ. eigenvalues --   -0.40365  -0.39659  -0.37836  -0.36581  -0.35653
 Alpha  occ. eigenvalues --   -0.35160  -0.33663  -0.33579  -0.33352  -0.33256
 Alpha  occ. eigenvalues --   -0.32218  -0.29676  -0.29549  -0.29260  -0.28003
 Alpha virt. eigenvalues --   -0.03079  -0.00631  -0.00228   0.00665   0.00885
 Alpha virt. eigenvalues --    0.01822   0.01972   0.02428   0.03948   0.04362
 Alpha virt. eigenvalues --    0.04411   0.06214   0.06763   0.06932   0.08994
 Alpha virt. eigenvalues --    0.09086   0.09319   0.09653   0.10278   0.10457
 Alpha virt. eigenvalues --    0.11510   0.12856   0.13150   0.13653   0.14140
 Alpha virt. eigenvalues --    0.14329   0.14518   0.15212   0.15299   0.15869
 Alpha virt. eigenvalues --    0.15970   0.16678   0.17421   0.17929   0.18748
 Alpha virt. eigenvalues --    0.18764   0.19434   0.19561   0.19965   0.20426
 Alpha virt. eigenvalues --    0.20692   0.21553   0.21948   0.22204   0.22550
 Alpha virt. eigenvalues --    0.22633   0.23077   0.23348   0.23566   0.24794
 Alpha virt. eigenvalues --    0.25805   0.26055   0.26284   0.27058   0.27631
 Alpha virt. eigenvalues --    0.28224   0.29140   0.29834   0.29959   0.30304
 Alpha virt. eigenvalues --    0.30589   0.31065   0.31321   0.31845   0.32138
 Alpha virt. eigenvalues --    0.32253   0.32387   0.32951   0.33572   0.33859
 Alpha virt. eigenvalues --    0.34152   0.34549   0.34960   0.35259   0.35505
 Alpha virt. eigenvalues --    0.35738   0.35878   0.36103   0.36534   0.36619
 Alpha virt. eigenvalues --    0.37667   0.37774   0.38514   0.38708   0.39173
 Alpha virt. eigenvalues --    0.39991   0.40344   0.41294   0.41500   0.42061
 Alpha virt. eigenvalues --    0.42084   0.42414   0.42830   0.44051   0.44122
 Alpha virt. eigenvalues --    0.44660   0.45433   0.45901   0.46660   0.47143
 Alpha virt. eigenvalues --    0.47614   0.47851   0.48133   0.48198   0.48657
 Alpha virt. eigenvalues --    0.49957   0.50341   0.50643   0.50978   0.51241
 Alpha virt. eigenvalues --    0.51387   0.51829   0.52337   0.52572   0.52718
 Alpha virt. eigenvalues --    0.52927   0.53259   0.53614   0.54217   0.54537
 Alpha virt. eigenvalues --    0.54715   0.54942   0.55106   0.55696   0.56043
 Alpha virt. eigenvalues --    0.56167   0.56615   0.57289   0.57442   0.57611
 Alpha virt. eigenvalues --    0.58117   0.58841   0.59167   0.60149   0.60188
 Alpha virt. eigenvalues --    0.60481   0.60537   0.61090   0.61534   0.61561
 Alpha virt. eigenvalues --    0.61655   0.63251   0.63679   0.64162   0.64797
 Alpha virt. eigenvalues --    0.64869   0.65513   0.65574   0.66391   0.66852
 Alpha virt. eigenvalues --    0.67113   0.67513   0.67782   0.67969   0.68594
 Alpha virt. eigenvalues --    0.68665   0.69961   0.70448   0.70462   0.70837
 Alpha virt. eigenvalues --    0.71289   0.71713   0.71841   0.71964   0.72441
 Alpha virt. eigenvalues --    0.72724   0.72910   0.73016   0.73391   0.73444
 Alpha virt. eigenvalues --    0.73851   0.74055   0.74406   0.74729   0.74776
 Alpha virt. eigenvalues --    0.75331   0.75494   0.75675   0.75864   0.76425
 Alpha virt. eigenvalues --    0.76803   0.77012   0.77094   0.77678   0.78345
 Alpha virt. eigenvalues --    0.78429   0.78798   0.79082   0.79463   0.79631
 Alpha virt. eigenvalues --    0.80318   0.80482   0.80639   0.81156   0.81562
 Alpha virt. eigenvalues --    0.81687   0.81747   0.82534   0.82826   0.83703
 Alpha virt. eigenvalues --    0.83883   0.83944   0.84178   0.84541   0.84952
 Alpha virt. eigenvalues --    0.85265   0.85470   0.85588   0.86366   0.86932
 Alpha virt. eigenvalues --    0.86979   0.87334   0.87565   0.87829   0.88091
 Alpha virt. eigenvalues --    0.88430   0.89177   0.89270   0.90108   0.90252
 Alpha virt. eigenvalues --    0.90398   0.91415   0.91564   0.91684   0.92314
 Alpha virt. eigenvalues --    0.93824   0.94113   0.94329   0.94615   0.95170
 Alpha virt. eigenvalues --    0.95550   0.95790   0.96401   0.96945   0.97916
 Alpha virt. eigenvalues --    0.98165   0.98771   0.99050   0.99927   1.01481
 Alpha virt. eigenvalues --    1.01650   1.02258   1.03322   1.04782   1.04870
 Alpha virt. eigenvalues --    1.06583   1.07488   1.08880   1.09257   1.09530
 Alpha virt. eigenvalues --    1.10998   1.11359   1.13138   1.13665   1.14650
 Alpha virt. eigenvalues --    1.14825   1.15072   1.15866   1.16046   1.16208
 Alpha virt. eigenvalues --    1.16941   1.17830   1.18102   1.20812   1.21678
 Alpha virt. eigenvalues --    1.22020   1.22398   1.22964   1.24404   1.24560
 Alpha virt. eigenvalues --    1.24945   1.25173   1.25643   1.26220   1.26292
 Alpha virt. eigenvalues --    1.27535   1.27950   1.28437   1.28485   1.29548
 Alpha virt. eigenvalues --    1.29717   1.30257   1.30694   1.30740   1.30905
 Alpha virt. eigenvalues --    1.31487   1.32315   1.33091   1.33687   1.33902
 Alpha virt. eigenvalues --    1.34207   1.34447   1.34788   1.35321   1.35557
 Alpha virt. eigenvalues --    1.35870   1.35894   1.36200   1.37547   1.37660
 Alpha virt. eigenvalues --    1.38223   1.38352   1.38528   1.40216   1.40707
[...]
 Alpha  occ. eigenvalues --   -0.85280  -0.85010  -0.81927  -0.76800  -0.75890
 Alpha  occ. eigenvalues --   -0.75416  -0.75397  -0.74764  -0.74595  -0.74403
 Alpha  occ. eigenvalues --   -0.72311  -0.72001  -0.70287  -0.69013  -0.68210
 Alpha  occ. eigenvalues --   -0.65748  -0.65264  -0.65173  -0.64938  -0.64543
 Alpha  occ. eigenvalues --   -0.64525  -0.62672  -0.62128  -0.61074  -0.60185
 Alpha  occ. eigenvalues --   -0.59149  -0.58430  -0.57661  -0.57535  -0.57259
 Alpha  occ. eigenvalues --   -0.56934  -0.56634  -0.56504  -0.56108  -0.55969
 Alpha  occ. eigenvalues --   -0.55727  -0.55289  -0.54924  -0.54846  -0.54460
 Alpha  occ. eigenvalues --   -0.54383  -0.54049  -0.53365  -0.52994  -0.52542
 Alpha  occ. eigenvalues --   -0.52473  -0.52468  -0.51994  -0.51303  -0.51259
 Alpha  occ. eigenvalues --   -0.51136  -0.51126  -0.50557  -0.49464  -0.49101
 Alpha  occ. eigenvalues --   -0.48548  -0.47988  -0.47408  -0.47317  -0.46044
 Alpha  occ. eigenvalues --   -0.45766  -0.45145  -0.44923  -0.43753  -0.43718
 Alpha  occ. eigenvalues --   -0.43386  -0.42442  -0.41856  -0.41242  -0.40728
 Alpha  occ. eigenvalues --   -0.40365  -0.39659  -0.37837  -0.36579  -0.35653
 Alpha  occ. eigenvalues --   -0.35161  -0.33665  -0.33579  -0.33351  -0.33256
 Alpha  occ. eigenvalues --   -0.32218  -0.29676  -0.29549  -0.29260  -0.28006
 Alpha virt. eigenvalues --   -0.03076  -0.00631  -0.00228   0.00665   0.00885
 Alpha virt. eigenvalues --    0.01822   0.01972   0.02429   0.03948   0.04362
 Alpha virt. eigenvalues --    0.04411   0.06215   0.06763   0.06933   0.08994
 Alpha virt. eigenvalues --    0.09086   0.09320   0.09653   0.10278   0.10457
 Alpha virt. eigenvalues --    0.11514   0.12856   0.13149   0.13653   0.14140
 Alpha virt. eigenvalues --    0.14327   0.14514   0.15208   0.15298   0.15869
 Alpha virt. eigenvalues --    0.15969   0.16677   0.17420   0.17928   0.18747
 Alpha virt. eigenvalues --    0.18765   0.19434   0.19561   0.19960   0.20426
 Alpha virt. eigenvalues --    0.20691   0.21554   0.21947   0.22204   0.22547
 Alpha virt. eigenvalues --    0.22632   0.23076   0.23348   0.23566   0.24793
 Alpha virt. eigenvalues --    0.25805   0.26055   0.26284   0.27058   0.27633
 Alpha virt. eigenvalues --    0.28224   0.29140   0.29835   0.29958   0.30303
 Alpha virt. eigenvalues --    0.30590   0.31065   0.31321   0.31845   0.32138
 Alpha virt. eigenvalues --    0.32258   0.32387   0.32952   0.33573   0.33857
 Alpha virt. eigenvalues --    0.34153   0.34551   0.34959   0.35259   0.35505
 Alpha virt. eigenvalues --    0.35739   0.35879   0.36107   0.36534   0.36617
 Alpha virt. eigenvalues --    0.37667   0.37774   0.38516   0.38708   0.39171
 Alpha virt. eigenvalues --    0.39992   0.40344   0.41294   0.41500   0.42061
 Alpha virt. eigenvalues --    0.42084   0.42416   0.42829   0.44052   0.44123
 Alpha virt. eigenvalues --    0.44658   0.45432   0.45902   0.46660   0.47141
 Alpha virt. eigenvalues --    0.47614   0.47851   0.48131   0.48198   0.48660
 Alpha virt. eigenvalues --    0.49957   0.50342   0.50642   0.50974   0.51236
 Alpha virt. eigenvalues --    0.51387   0.51828   0.52337   0.52572   0.52721
 Alpha virt. eigenvalues --    0.52929   0.53258   0.53614   0.54217   0.54538
 Alpha virt. eigenvalues --    0.54714   0.54935   0.55108   0.55695   0.56044
 Alpha virt. eigenvalues --    0.56168   0.56612   0.57290   0.57442   0.57611
 Alpha virt. eigenvalues --    0.58117   0.58841   0.59166   0.60149   0.60188
 Alpha virt. eigenvalues --    0.60481   0.60537   0.61090   0.61536   0.61560
 Alpha virt. eigenvalues --    0.61655   0.63251   0.63679   0.64164   0.64796
 Alpha virt. eigenvalues --    0.64870   0.65512   0.65575   0.66391   0.66852
 Alpha virt. eigenvalues --    0.67113   0.67512   0.67782   0.67969   0.68594
 Alpha virt. eigenvalues --    0.68664   0.69960   0.70448   0.70462   0.70836
 Alpha virt. eigenvalues --    0.71289   0.71714   0.71841   0.71962   0.72437
 Alpha virt. eigenvalues --    0.72724   0.72906   0.73016   0.73390   0.73444
 Alpha virt. eigenvalues --    0.73851   0.74055   0.74406   0.74728   0.74774
 Alpha virt. eigenvalues --    0.75330   0.75492   0.75675   0.75864   0.76424
 Alpha virt. eigenvalues --    0.76802   0.77011   0.77094   0.77677   0.78345
 Alpha virt. eigenvalues --    0.78428   0.78798   0.79081   0.79463   0.79631
 Alpha virt. eigenvalues --    0.80318   0.80483   0.80641   0.81156   0.81559
 Alpha virt. eigenvalues --    0.81687   0.81748   0.82534   0.82822   0.83703
 Alpha virt. eigenvalues --    0.83882   0.83943   0.84178   0.84541   0.84951
 Alpha virt. eigenvalues --    0.85264   0.85470   0.85590   0.86366   0.86932
 Alpha virt. eigenvalues --    0.86981   0.87336   0.87584   0.87834   0.88089
 Alpha virt. eigenvalues --    0.88431   0.89181   0.89271   0.90109   0.90252
 Alpha virt. eigenvalues --    0.90397   0.91416   0.91566   0.91687   0.92314
 Alpha virt. eigenvalues --    0.93825   0.94113   0.94328   0.94615   0.95170
 Alpha virt. eigenvalues --    0.95549   0.95790   0.96400   0.96945   0.97916
 Alpha virt. eigenvalues --    0.98167   0.98771   0.99049   0.99927   1.01484
 Alpha virt. eigenvalues --    1.01650   1.02257   1.03322   1.04783   1.04870
 Alpha virt. eigenvalues --    1.06582   1.07488   1.08879   1.09256   1.09530
 Alpha virt. eigenvalues --    1.10998   1.11359   1.13139   1.13664   1.14650
 Alpha virt. eigenvalues --    1.14825   1.15072   1.15866   1.16046   1.16211
 Alpha virt. eigenvalues --    1.16939   1.17830   1.18102   1.20811   1.21677
 Alpha virt. eigenvalues --    1.22020   1.22398   1.22964   1.24406   1.24561
 Alpha virt. eigenvalues --    1.24945   1.25173   1.25643   1.26221   1.26292
 Alpha virt. eigenvalues --    1.27537   1.27950   1.28437   1.28486   1.29548
 Alpha virt. eigenvalues --    1.29717   1.30257   1.30695   1.30740   1.30906
 Alpha virt. eigenvalues --    1.31490   1.32315   1.33091   1.33687   1.33903
 Alpha virt. eigenvalues --    1.34207   1.34448   1.34787   1.35319   1.35557
 Alpha virt. eigenvalues --    1.35871   1.35894   1.36200   1.37547   1.37660
 Alpha virt. eigenvalues --    1.38224   1.38353   1.38528   1.40217   1.40708
 Alpha virt. eigenvalues --    1.41966   1.42182   1.43183   1.43371   1.44534
 Alpha virt. eigenvalues --    1.45460   1.46746   1.48077   1.48175   1.49403
 Alpha virt. eigenvalues --    1.50469   1.54890   1.55602   1.55679   1.58904
 Alpha virt. eigenvalues --    1.59143   1.59887   1.62371   1.63630   1.64307
 Alpha virt. eigenvalues --    1.64907   1.65577   1.66557   1.67562   1.67771
 Alpha virt. eigenvalues --    1.68765   1.69732   1.70941   1.71702   1.72026
 Alpha virt. eigenvalues --    1.72838   1.73013   1.73258   1.73684   1.73806
 Alpha virt. eigenvalues --    1.74428   1.74744   1.75046   1.75481   1.76003
 Alpha virt. eigenvalues --    1.77223   1.77266   1.78099   1.78468   1.78660
 Alpha virt. eigenvalues --    1.78734   1.79397   1.79548   1.79943   1.80021
 Alpha virt. eigenvalues --    1.80389   1.80906   1.81462   1.81627   1.81806
 Alpha virt. eigenvalues --    1.81929   1.82092   1.82234   1.82639   1.82947
 Alpha virt. eigenvalues --    1.83412   1.84104   1.84305   1.84700   1.84877
 Alpha virt. eigenvalues --    1.85666   1.86099   1.86400   1.87094   1.87405
 Alpha virt. eigenvalues --    1.87653   1.87864   1.88296   1.89698   1.89767
 Alpha virt. eigenvalues --    1.90380   1.90389   1.91078   1.91254   1.91853
 Alpha virt. eigenvalues --    1.93364   1.94161   1.94318   1.95549   1.96080
 Alpha virt. eigenvalues --    1.96776   1.97088   1.97573   1.98314   1.99280
 Alpha virt. eigenvalues --    1.99392   2.00592   2.01143   2.01432   2.02197
 Alpha virt. eigenvalues --    2.02563   2.02833   2.03216   2.03867   2.04510
 Alpha virt. eigenvalues --    2.04822   2.04995   2.05423   2.05735   2.06135
 Alpha virt. eigenvalues --    2.06931   2.07932   2.09213   2.10062   2.10352
 Alpha virt. eigenvalues --    2.10929   2.11070   2.11834   2.12279   2.13919
 Alpha virt. eigenvalues --    2.14630   2.15519   2.15818   2.16618   2.16711
 Alpha virt. eigenvalues --    2.16846   2.17877   2.18160   2.18593   2.19588
 Alpha virt. eigenvalues --    2.20334   2.20568   2.20886   2.21318   2.21561
 Alpha virt. eigenvalues --    2.23276   2.23571   2.24383   2.24506   2.25805
 Alpha virt. eigenvalues --    2.26109   2.29375   2.29964   2.30736   2.31366
 Alpha virt. eigenvalues --    2.31463   2.31665   2.32815   2.33451   2.34417
 Alpha virt. eigenvalues --    2.34998   2.35841   2.36059   2.36676   2.37392
 Alpha virt. eigenvalues --    2.37640   2.37772   2.38133   2.38453   2.38836
 Alpha virt. eigenvalues --    2.39560   2.39695   2.41342   2.41779   2.42683
 Alpha virt. eigenvalues --    2.44065   2.45206   2.45223   2.46165   2.46711
 Alpha virt. eigenvalues --    2.47508   2.48025   2.49897   2.49976   2.50720
 Alpha virt. eigenvalues --    2.53625   2.54876   2.56231   2.57333   2.59230
 Alpha virt. eigenvalues --    2.60220   2.60991   2.61524   2.63767   2.64675
 Alpha virt. eigenvalues --    2.65770   2.65964   2.66727   2.67003   2.67568
 Alpha virt. eigenvalues --    2.67639   2.68235   2.69480   2.69821   2.69877
 Alpha virt. eigenvalues --    2.70036   2.70324   2.70408   2.70880   2.71112
 Alpha virt. eigenvalues --    2.72107   2.72444   2.72715   2.74318   2.74767
 Alpha virt. eigenvalues --    2.75737   2.77000   2.79229   2.79448   2.80058
 Alpha virt. eigenvalues --    2.80123   2.80337   2.80466   2.81823   2.82260
 Alpha virt. eigenvalues --    2.84519   2.85226   2.85777   2.86404   2.87051
 Alpha virt. eigenvalues --    2.87178   2.89625   2.91417   2.91873   2.94574
 Alpha virt. eigenvalues --    2.95895   2.97822   2.98462   2.99080   3.01339
 Alpha virt. eigenvalues --    3.02742   3.05011   3.05837   3.06159   3.07094
 Alpha virt. eigenvalues --    3.08634   3.09703   3.10251   3.11766   3.12513
 Alpha virt. eigenvalues --    3.15831   3.16231   3.19168   3.19722   3.20318
 Alpha virt. eigenvalues --    3.20686   3.20956   3.21891   3.22245   3.24163
 Alpha virt. eigenvalues --    3.24722   3.29756   3.29915   3.32662   3.32881
 Alpha virt. eigenvalues --    3.38115   3.39038   3.41612   3.45670   3.45952
 Alpha virt. eigenvalues --    3.47220   3.50711   3.52353   3.55487   3.58476
 Alpha virt. eigenvalues --    3.60568   3.62393   3.63151   3.63233   3.63508
 Alpha virt. eigenvalues --    3.63827   3.65780   3.66478   3.71963   3.72709
 Alpha virt. eigenvalues --    3.75731   3.75935   3.76575   3.78847   3.79450
 Alpha virt. eigenvalues --    3.82130   3.85097   3.92417   3.95062   4.02492
 Alpha virt. eigenvalues --    4.08528
 Electronic spatial extent (au):  <R**2>=          25433.5810
 Charge=             -0.0000 electrons
 Dipole moment (field-independent basis, Debye):
    X=             19.7659    Y=             14.4253    Z=              0.2459  Tot=             24.4713
 Quadrupole moment (field-independent basis, Debye-Ang):
   XX=           -308.1984   YY=           -250.2946   ZZ=           -219.8942
   XY=            -55.8837   XZ=             -1.6748   YZ=             -1.4348
 Traceless Quadrupole moment (field-independent basis, Debye-Ang):
   XX=            -48.7360   YY=              9.1678   ZZ=             39.5682
   XY=            -55.8837   XZ=             -1.6748   YZ=             -1.4348
 Octapole moment (field-independent basis, Debye-Ang**2):
  XXX=            512.4691  YYY=            116.1039  ZZZ=              1.9762  XYY=           -130.6915
  XXY=            290.7016  XXZ=             12.2608  XZZ=             49.7759  YZZ=             10.7664
  YYZ=             -2.9587  XYZ=            -10.4957
 Hexadecapole moment (field-independent basis, Debye-Ang**3):
 XXXX=         -19177.6533 YYYY=          -7166.2304 ZZZZ=          -5533.8285 XXXY=          -1221.8739
 XXXZ=            -63.8966 YYYX=           -623.4155 YYYZ=             13.5595 ZZZX=             11.9149
 ZZZY=            -32.1639 XXYY=          -4544.7712 XXZZ=          -3815.2546 YYZZ=          -2544.3273
 XXYZ=             17.9175 YYXZ=            -30.3767 ZZXY=            133.4910
 N-N= 5.860121293724D+03 E-N=-2.454764355596D+04  KE= 5.399268882328D+03
 D1PCM: PCM CHGder 1st derivatives, ID1Alg=3 FixD1E=F DoIter=F DoCFld=F I1PDM=0.
 Calling FoFJK, ICntrl=      2127 FMM=T ISym2X=0 I1Cent= 0 IOpClX= 0 NMat=1 NMatS=1 NMatT=0.
 -------------------------------------------------------------------
 Center     Atomic                   Forces (Hartrees/Bohr)
 Number     Number              X              Y              Z
 -------------------------------------------------------------------
      1       25          -0.000069496   -0.000052400    0.000093079
      2        6           0.000022225   -0.000027457   -0.000009568
      3        8          -0.000005428    0.000010423    0.000001385
      4        6           0.000017306   -0.000074022   -0.000028900
      5        8           0.000006416   -0.000009949    0.000002939
      6        6           0.000002480   -0.000038185   -0.000036127
      7        7          -0.000123139    0.000015415   -0.000080545
      8        6          -0.000010378   -0.000052290    0.000035034
      9        6           0.000004714    0.000003925    0.000016541
     10        6           0.000032841   -0.000007677   -0.000009909
     11        1          -0.000015411    0.000020516   -0.000017809
     12        1           0.000000741    0.000002557   -0.000000669
     13        7           0.000208003    0.000076086   -0.000057241
     14        6          -0.000094135    0.000023439    0.000102294
     15        6          -0.000048532   -0.000009346   -0.000038540
     16        6          -0.000035930    0.000003291   -0.000015637
     17        6          -0.000006393   -0.000016361    0.000001495
     18        6          -0.000182901    0.000091237    0.000097575
     19        1           0.000004449   -0.000014521   -0.000004691
     20        1           0.000230897   -0.000085185   -0.000099876
     21        7          -0.000045864    0.000023962   -0.000003197
     22        6          -0.000001498   -0.000031404   -0.000010950
     23        6           0.000004824    0.000010391   -0.000004100
     24        1          -0.000045339   -0.000015237    0.000039838
     25        6          -0.000005152   -0.000012379   -0.000007607
     26        1          -0.000005281   -0.000008010   -0.000001792
     27        6           0.000029158    0.000017253    0.000003703
     28        1           0.000008168   -0.000003778   -0.000008503
     29        1          -0.000005975   -0.000000788    0.000001653
     30        8           0.000003346    0.000020282    0.000013484
     31        6          -0.000615696    0.000059035    0.000119382
     32        6           0.000019597    0.000022955   -0.000046580
     33        6           0.000012162    0.000024123    0.000028962
     34        6           0.000024495    0.000011938   -0.000027659
     35        6          -0.000009461    0.000006803   -0.000004791
     36        6           0.000000347    0.000004915    0.000008547
     37        6           0.000008104    0.000005400   -0.000006690
     38        6          -0.000016418    0.000003095    0.000020584
     39        6          -0.000043139    0.000022288   -0.000035057
     40        1          -0.000000208    0.000002765    0.000002169
     41        1           0.000004252    0.000004891    0.000003676
     42        1           0.000003300    0.000005449   -0.000002500
     43        6          -0.000016285   -0.000004694    0.000027735
     44        6           0.000010007    0.000006100    0.000004247
     45        6           0.000001142    0.000003740   -0.000005659
     46        6          -0.000004822    0.000005125    0.000000543
     47        6           0.000000984    0.000002430    0.000009898
     48        6           0.000004629    0.000007987   -0.000033467
     49        1          -0.000003774    0.000005485    0.000000308
     50        1           0.000000615    0.000006546    0.000000361
     51        1          -0.000004535    0.000003535   -0.000002451
     52        6          -0.000003292   -0.000009746   -0.000022758
     53        1           0.000001371    0.000002804   -0.000003225
     54        6          -0.000004423   -0.000028087   -0.000009077
     55        1           0.000002320    0.000000734   -0.000006842
     56        1          -0.000003007    0.000002984    0.000003977
     57        6          -0.000004164   -0.000006197    0.000003667
     58        6           0.000001079    0.000011235    0.000000563
     59        1          -0.000003386   -0.000008617    0.000001627
     60        1          -0.000005116   -0.000007505   -0.000001921
     61       35           0.000002558    0.000024900    0.000010429
     62        1           0.000050700    0.000002613   -0.000022676
     63        1           0.000715348   -0.000054820    0.000011319
 -------------------------------------------------------------------
 Cartesian Forces:  Max     0.000715348 RMS     0.000079587
 NDeriv=    189 NFrqRd=  0 NDerD0=      0 MskFDP=       0 MskDFD=       0 MskDF0=       0
 Re-enter D2Numr:  atom  63 IXYZ=1 step-down number 1
 Basis read from rwf:  (5D, 7F)
   751 basis functions,  1339 primitive gaussians,   802 cartesian basis functions
   165 alpha electrons      165 beta electrons
       nuclear repulsion energy      5860.1832171520 Hartrees.
 NAtoms=   63 NActive=   63 NUniq=   63 SFac= 1.00D+00 NAtFMM=   60 NAOKFM=T Big=T
 Integral buffers will be    131072 words long.
 Raffenetti 2 integral format.
 Two-electron integral symmetry is turned off.
 Nuclear repulsion after empirical dispersion term =     5860.1201481434 Hartrees.
 ------------------------------------------------------------------------------
 Polarizable Continuum Model (PCM)
 =================================
 Model                : PCM.
 Atomic radii         : UFF (Universal Force Field).
 Polarization charges : Total charges.
 Charge compensation  : None.
 Solution method      : On-the-fly selection.
 Cavity type          : Scaled VdW (van der Waals Surface) (Alpha=1.100).
 Cavity algorithm     : GePol (No added spheres)
                        Default sphere list used, NSphG=   63.
                        Lebedev-Laikov grids with approx.  5.0 points / Ang**2.
                        Smoothing algorithm: York/Karplus (Gamma=1.0000).
                        Polarization charges: spherical gaussians, with
                                              point-specific exponents (IZeta= 3).
                        Self-potential: point-specific (ISelfS= 7).
                        Self-field    : sphere-specific E.n sum rule (ISelfD= 2).
 1st derivatives      : Analytical E(r).r(x)/FMM algorithm (CHGder, D1EAlg=3).
                        Cavity 1st derivative terms included.
 Solvent              : TetraHydroFuran, Eps=   7.425700 Eps(inf)=   1.974025
 ------------------------------------------------------------------------------
 One-electron integrals computed using PRISM.
 NBasis=   751 RedAO= T EigKep=  2.24D-04  NBF=   751
 NBsUse=   751 1.00D-06 EigRej= -1.00D+00 NBFU=   751
 Initial guess from the checkpoint file:  "checkpoint.chk"
 B after Tr=     0.000000    0.000006    0.000000
         Rot=    1.000000    0.000000    0.000000   -0.000000 Ang=  -0.00 deg.
 Requested convergence on RMS density matrix=1.00D-08 within 128 cycles.
 Requested convergence on MAX density matrix=1.00D-06.
 Requested convergence on             energy=1.00D-06.
 No special actions if energy rises.
 Inv3:  Mode=1 IEnd=    73864332.
 Iteration    1 A*A^-1 deviation from unit magnitude is 3.55D-15 for    375.
 Iteration    1 A*A^-1 deviation from orthogonality  is 2.23D-15 for   2104    241.
 Iteration    1 A^-1*A deviation from unit magnitude is 3.55D-15 for    374.
 Iteration    1 A^-1*A deviation from orthogonality  is 2.66D-15 for   3137    465.
