 Entering Gaussian System, Link 0=g16
 Initial command:
 /home1/apps/gaussian/16rA.03/g16/l1.exe "/tmp/Gau-236065.inp" -scrdir="/tmp/"
 Entering Link 1 = /home1/apps/gaussian/16rA.03/g16/l1.exe PID=    236067.
  
 Copyright (c) 1988,1990,1992,1993,1995,1998,2003,2009,2016,
            Gaussian, Inc.  All Rights Reserved.
  
 This is part of the Gaussian(R) 16 program.  It is based on
 the Gaussian(R) 09 system (copyright 2009, Gaussian, Inc.),
 the Gaussian(R) 03 system (copyright 2003, Gaussian, Inc.),
 the Gaussian(R) 98 system (copyright 1998, Gaussian, Inc.),
 the Gaussian(R) 94 system (copyright 1995, Gaussian, Inc.),
 the Gaussian 92(TM) system (copyright 1992, Gaussian, Inc.),
 the Gaussian 90(TM) system (copyright 1990, Gaussian, Inc.),
 the Gaussian 88(TM) system (copyright 1988, Gaussian, Inc.),
 the Gaussian 86(TM) system (copyright 1986, Carnegie Mellon
 University), and the Gaussian 82(TM) system (copyright 1983,
 Carnegie Mellon University). Gaussian is a federally registered
 trademark of Gaussian, Inc.
  
 This software contains proprietary and confidential information,
 including trade secrets, belonging to Gaussian, Inc.
  
 This software is provided under written license and may be
 used, copied, transmitted, or stored only in accord with that
 written license.
  
 The following legend is applicable only to US Government
 contracts under FAR:
  
                    RESTRICTED RIGHTS LEGEND
  
 Use, reproduction and disclosure by the US Government is
 subject to restrictions as set forth in subparagraphs (a)
 and (c) of the Commercial Computer Software - Restricted
 Rights clause in FAR 52.227-19.
  
 Gaussian, Inc.
 340 Quinnipiac St., Bldg. 40, Wallingford CT 06492
  
  
 ---------------------------------------------------------------
 Warning -- This program may not be used in any manner that
 competes with the business of Gaussian, Inc. or will provide
 assistance to any competitor of Gaussian, Inc.  The licensee
 of this program is prohibited from giving any competitor of
 Gaussian, Inc. access to this program.  By using this program,
 the user acknowledges that Gaussian, Inc. is engaged in the
 business of creating and licensing software in the field of
 computational chemistry and represents and warrants to the
 licensee that it is not a competitor of Gaussian, Inc. and that
 it will not use this program in any manner prohibited above.
 ---------------------------------------------------------------
  

 Cite this work as:
 Gaussian 16, Revision A.03,
 M. J. Frisch, G. W. Trucks, H. B. Schlegel, G. E. Scuseria, 
 M. A. Robb, J. R. Cheeseman, G. Scalmani, V. Barone, 
 G. A. Petersson, H. Nakatsuji, X. Li, M. Caricato, A. V. Marenich, 
 J. Bloino, B. G. Janesko, R. Gomperts, B. Mennucci, H. P. Hratchian, 
 J. V. Ortiz, A. F. Izmaylov, J. L. Sonnenberg, D. Williams-Young, 
 F. Ding, F. Lipparini, F. Egidi, J. Goings, B. Peng, A. Petrone, 
 T. Henderson, D. Ranasinghe, V. G. Zakrzewski, J. Gao, N. Rega, 
 G. Zheng, W. Liang, M. Hada, M. Ehara, K. Toyota, R. Fukuda, 
 J. Hasegawa, M. Ishida, T. Nakajima, Y. Honda, O. Kitao, H. Nakai, 
 T. Vreven, K. Throssell, J. A. Montgomery, Jr., J. E. Peralta, 
 F. Ogliaro, M. J. Bearpark, J. J. Heyd, E. N. Brothers, K. N. Kudin, 
 V. N. Staroverov, T. A. Keith, R. Kobayashi, J. Normand, 
 K. Raghavachari, A. P. Rendell, J. C. Burant, S. S. Iyengar, 
 J. Tomasi, M. Cossi, J. M. Millam, M. Klene, C. Adamo, R. Cammi, 
 J. W. Ochterski, R. L. Martin, K. Morokuma, O. Farkas, 
 J. B. Foresman, and D. J. Fox, Gaussian, Inc., Wallingford CT, 2016.
 
 ******************************************
 Gaussian 16:  ES64L-G16RevA.03 25-Dec-2016
                 9-Oct-2022 
 ******************************************
 %NProcShared=24
 Will use up to   24 processors via shared memory.
 %Chk=checkpoint.chk
 -----------------------------------------------
 # wB97XD Gen Opt SCRF=(Solvent=TetraHydroFuran)
 -----------------------------------------------
 1/18=20,19=15,26=3,38=1/1,3;
 2/9=110,12=2,17=6,18=5,40=1/2;
 3/5=7,11=2,25=1,30=1,70=2201,71=1,72=20,74=-58/1,2,3;
 4//1;
 5/5=2,38=5,53=20/2;
 6/7=2,8=2,9=2,10=2,28=1/1;
 7//1,2,3,16;
 1/18=20,19=15,26=3/3(2);
 2/9=110/2;
 99//99;
 2/9=110/2;
 3/5=7,6=1,11=2,25=1,30=1,70=2205,71=1,72=20,74=-58,82=7/1,2,3;
 4/5=5,16=3,69=1/1;
 5/5=2,38=5,53=20/2;
 7//1,2,3,16;
 1/18=20,19=15,26=3/3(-5);
 2/9=110/2;
 6/7=2,8=2,9=2,10=2,19=2,28=1/1;
 99/9=1/99;
 ----------------------------------
 BenzoNitrile Geometry Optimization
 ----------------------------------
 Symbolic Z-matrix:
 Charge =  1 Multiplicity = 1
 Mn(Fragment=1)        3.17938   0.19992  -0.39826 
 C(Fragment=1)         3.97225  -0.36837  -1.95223 
 C(Fragment=1)         4.57667  -0.45632   0.57377 
 C(Fragment=1)         4.00767   1.83397  -0.45914 
 N(Fragment=1)         2.11407   0.78002   1.38119 
 N(Fragment=1)         2.09541  -1.66701  -0.26248 
 C(Fragment=1)         2.73236   1.10667   2.52985 
 C(Fragment=1)         2.04131   1.52574   3.65819 
 C(Fragment=1)         0.65157   1.62438   3.61442 
 C(Fragment=1)        -0.00334   1.28037   2.43313 
 C(Fragment=1)         0.78354   0.86394   1.36057 
 C(Fragment=1)         0.7962   -1.72638  -0.56517 
 C(Fragment=1)        -0.02327  -2.82644  -0.31931 
 C(Fragment=1)         2.65276  -2.78007   0.24654 
 C(Fragment=1)         1.9348   -3.94578   0.47579 
 C(Fragment=1)         0.5685   -3.97302   0.20527 
 C(Fragment=1)        -1.47897  -2.68223  -0.60353 
 C(Fragment=1)        -1.47018   1.42432   2.218 
 C(Fragment=1)        -2.28326   0.3478    1.81146 
 C(Fragment=1)        -2.29304  -1.91665   0.2524 
 C(Fragment=1)        -3.62819   0.57267   1.48368 
 C(Fragment=1)        -3.63564  -1.68932  -0.0759 
 C(Fragment=1)        -2.04242  -3.25393  -1.74721 
 C(Fragment=1)        -2.0446    2.69411   2.34476 
 C(Fragment=1)        -3.38311   2.90958   2.02874 
 C(Fragment=1)        -3.38088  -3.03253  -2.06468 
 C(Fragment=1)        -4.17205  -2.23134  -1.24655 
 C(Fragment=1)        -4.17018   1.85724   1.57199 
 S(Fragment=1)        -1.64003  -1.31224   1.79559 
 S(Fragment=1)        -4.69311  -0.7683    1.01299 
 H(Fragment=1)         2.59544   1.77877   4.56214 
 H(Fragment=1)         0.08731   1.96292   4.48582 
 H(Fragment=1)         0.28812   0.60213   0.43243 
 H(Fragment=1)         0.35234  -0.84917  -1.02717 
 H(Fragment=1)         3.71606  -2.74527   0.48216 
 H(Fragment=1)         2.44685  -4.81712   0.8843 
 H(Fragment=1)        -0.02774  -4.86389   0.41178 
 H(Fragment=1)        -1.41427  -3.85809  -2.40477 
 H(Fragment=1)        -1.41787   3.52968   2.66302 
 H(Fragment=1)        -3.81017   3.90984   2.1164 
 H(Fragment=1)        -3.80675  -3.47212  -2.9681 
 H(Fragment=1)        -5.21339  -2.03204  -1.50683 
 H(Fragment=1)        -5.21271   2.02398   1.29417 
 O(Fragment=1)         5.48679  -0.82725   1.1587 
 O(Fragment=1)         4.51489   2.85526  -0.49256 
 O(Fragment=1)         4.45575  -0.73677  -2.91725 
 H(Fragment=1)         3.82088   1.03927   2.54724 
 N(Fragment=2)         1.69386   0.93031  -1.58276 
 C(Fragment=2)         0.77471   1.43418  -2.0747 
 H(Fragment=2)        -1.78938   1.07229  -1.38579 
 C(Fragment=2)        -1.6568    1.7704   -2.21387 
 C(Fragment=2)        -0.36812   2.06021  -2.68569 
 C(Fragment=2)        -2.75728   2.37936  -2.80968 
 H(Fragment=2)        -3.76148   2.15623  -2.44508 
 C(Fragment=2)        -0.18509   2.95595  -3.74985 
 C(Fragment=2)        -2.57704   3.27073  -3.86814 
 C(Fragment=2)        -1.29405   3.55786  -4.33655 
 H(Fragment=2)         0.82136   3.17498  -4.1099 
 H(Fragment=2)        -3.44387   3.74569  -4.33211 
 H(Fragment=2)        -1.15571   4.25527  -5.16456 
 

 GradGradGradGradGradGradGradGradGradGradGradGradGradGradGradGradGradGrad
 Berny optimization.
 Initialization pass.
                           ----------------------------
                           !    Initial Parameters    !
                           ! (Angstroms and Degrees)  !
 --------------------------                            --------------------------
 ! Name  Definition              Value          Derivative Info.                !
 --------------------------------------------------------------------------------
 ! R1    R(1,2)                  1.8348         estimate D2E/DX2                !
 ! R2    R(1,3)                  1.8243         estimate D2E/DX2                !
 ! R3    R(1,4)                  1.833          estimate D2E/DX2                !
 ! R4    R(1,5)                  2.1536         estimate D2E/DX2                !
 ! R5    R(1,6)                  2.1631         estimate D2E/DX2                !
 ! R6    R(1,48)                 2.0355         estimate D2E/DX2                !
 ! R7    R(2,46)                 1.1405         estimate D2E/DX2                !
 ! R8    R(3,44)                 1.1437         estimate D2E/DX2                !
 ! R9    R(4,45)                 1.1408         estimate D2E/DX2                !
 ! R10   R(5,7)                  1.3448         estimate D2E/DX2                !
 ! R11   R(5,11)                 1.3333         estimate D2E/DX2                !
 ! R12   R(6,12)                 1.3353         estimate D2E/DX2                !
 ! R13   R(6,14)                 1.3449         estimate D2E/DX2                !
 ! R14   R(7,8)                  1.3879         estimate D2E/DX2                !
 ! R15   R(7,47)                 1.0907         estimate D2E/DX2                !
 ! R16   R(8,9)                  1.3939         estimate D2E/DX2                !
 ! R17   R(8,31)                 1.0901         estimate D2E/DX2                !
 ! R18   R(9,10)                 1.3938         estimate D2E/DX2                !
 ! R19   R(9,32)                 1.0919         estimate D2E/DX2                !
 ! R20   R(10,11)                1.3939         estimate D2E/DX2                !
 ! R21   R(10,18)                1.4895         estimate D2E/DX2                !
 ! R22   R(11,33)                1.0842         estimate D2E/DX2                !
 ! R23   R(12,13)                1.3936         estimate D2E/DX2                !
 ! R24   R(12,34)                1.0863         estimate D2E/DX2                !
 ! R25   R(13,16)                1.3928         estimate D2E/DX2                !
 ! R26   R(13,17)                1.4902         estimate D2E/DX2                !
 ! R27   R(14,15)                1.3881         estimate D2E/DX2                !
 ! R28   R(14,35)                1.0896         estimate D2E/DX2                !
 ! R29   R(15,16)                1.3931         estimate D2E/DX2                !
 ! R30   R(15,36)                1.0901         estimate D2E/DX2                !
 ! R31   R(16,37)                1.0917         estimate D2E/DX2                !
 ! R32   R(17,20)                1.4076         estimate D2E/DX2                !
 ! R33   R(17,23)                1.3973         estimate D2E/DX2                !
 ! R34   R(18,19)                1.409          estimate D2E/DX2                !
 ! R35   R(18,24)                1.3994         estimate D2E/DX2                !
 ! R36   R(19,21)                1.4024         estimate D2E/DX2                !
 ! R37   R(19,29)                1.7804         estimate D2E/DX2                !
 ! R38   R(20,22)                1.4007         estimate D2E/DX2                !
 ! R39   R(20,29)                1.7813         estimate D2E/DX2                !
 ! R40   R(21,28)                1.397          estimate D2E/DX2                !
 ! R41   R(21,30)                1.7759         estimate D2E/DX2                !
 ! R42   R(22,27)                1.3971         estimate D2E/DX2                !
 ! R43   R(22,30)                1.7754         estimate D2E/DX2                !
 ! R44   R(23,26)                1.3933         estimate D2E/DX2                !
 ! R45   R(23,38)                1.0918         estimate D2E/DX2                !
 ! R46   R(24,25)                1.3921         estimate D2E/DX2                !
 ! R47   R(24,39)                1.0919         estimate D2E/DX2                !
 ! R48   R(25,28)                1.3912         estimate D2E/DX2                !
 ! R49   R(25,40)                1.0911         estimate D2E/DX2                !
 ! R50   R(26,27)                1.3918         estimate D2E/DX2                !
 ! R51   R(26,41)                1.0912         estimate D2E/DX2                !
 ! R52   R(27,42)                1.0917         estimate D2E/DX2                !
 ! R53   R(28,43)                1.0917         estimate D2E/DX2                !
 ! R54   R(48,49)                1.1579         estimate D2E/DX2                !
 ! R55   R(49,52)                1.4392         estimate D2E/DX2                !
 ! R56   R(50,51)                1.0912         estimate D2E/DX2                !
 ! R57   R(51,52)                1.4026         estimate D2E/DX2                !
 ! R58   R(51,53)                1.3917         estimate D2E/DX2                !
 ! R59   R(52,55)                1.403          estimate D2E/DX2                !
 ! R60   R(53,54)                1.0914         estimate D2E/DX2                !
 ! R61   R(53,56)                1.3955         estimate D2E/DX2                !
 ! R62   R(55,57)                1.3915         estimate D2E/DX2                !
 ! R63   R(55,58)                1.0911         estimate D2E/DX2                !
 ! R64   R(56,57)                1.3957         estimate D2E/DX2                !
 ! R65   R(56,59)                1.0919         estimate D2E/DX2                !
 ! R66   R(57,60)                1.0914         estimate D2E/DX2                !
 ! A1    A(2,1,3)               90.5084         estimate D2E/DX2                !
 ! A2    A(2,1,4)               93.0216         estimate D2E/DX2                !
 ! A3    A(2,1,6)               90.137          estimate D2E/DX2                !
 ! A4    A(2,1,48)              86.1959         estimate D2E/DX2                !
 ! A5    A(3,1,4)               89.557          estimate D2E/DX2                !
 ! A6    A(3,1,5)               92.0357         estimate D2E/DX2                !
 ! A7    A(3,1,6)               92.2873         estimate D2E/DX2                !
 ! A8    A(4,1,5)               90.6213         estimate D2E/DX2                !
 ! A9    A(4,1,48)              89.46           estimate D2E/DX2                !
 ! A10   A(5,1,6)               86.1427         estimate D2E/DX2                !
 ! A11   A(5,1,48)              91.327          estimate D2E/DX2                !
 ! A12   A(6,1,48)              88.8829         estimate D2E/DX2                !
 ! A13   A(1,5,7)              122.9411         estimate D2E/DX2                !
 ! A14   A(1,5,11)             119.8551         estimate D2E/DX2                !
 ! A15   A(7,5,11)             117.1762         estimate D2E/DX2                !
 ! A16   A(1,6,12)             120.7784         estimate D2E/DX2                !
 ! A17   A(1,6,14)             122.0331         estimate D2E/DX2                !
 ! A18   A(12,6,14)            116.8862         estimate D2E/DX2                !
 ! A19   A(5,7,8)              122.6044         estimate D2E/DX2                !
 ! A20   A(5,7,47)             117.2224         estimate D2E/DX2                !
 ! A21   A(8,7,47)             120.1712         estimate D2E/DX2                !
 ! A22   A(7,8,9)              119.4884         estimate D2E/DX2                !
 ! A23   A(7,8,31)             119.4165         estimate D2E/DX2                !
 ! A24   A(9,8,31)             121.0938         estimate D2E/DX2                !
 ! A25   A(8,9,10)             118.5293         estimate D2E/DX2                !
 ! A26   A(8,9,32)             120.8024         estimate D2E/DX2                !
 ! A27   A(10,9,32)            120.6682         estimate D2E/DX2                !
 ! A28   A(9,10,11)            117.4276         estimate D2E/DX2                !
 ! A29   A(9,10,18)            124.1443         estimate D2E/DX2                !
 ! A30   A(11,10,18)           118.2723         estimate D2E/DX2                !
 ! A31   A(5,11,10)            124.7663         estimate D2E/DX2                !
 ! A32   A(5,11,33)            117.003          estimate D2E/DX2                !
 ! A33   A(10,11,33)           118.2232         estimate D2E/DX2                !
 ! A34   A(6,12,13)            124.5571         estimate D2E/DX2                !
 ! A35   A(6,12,34)            117.2625         estimate D2E/DX2                !
 ! A36   A(13,12,34)           118.1782         estimate D2E/DX2                !
 ! A37   A(12,13,16)           117.8018         estimate D2E/DX2                !
 ! A38   A(12,13,17)           117.6702         estimate D2E/DX2                !
 ! A39   A(16,13,17)           124.5085         estimate D2E/DX2                !
 ! A40   A(6,14,15)            122.9009         estimate D2E/DX2                !
 ! A41   A(6,14,35)            117.3755         estimate D2E/DX2                !
 ! A42   A(15,14,35)           119.7236         estimate D2E/DX2                !
 ! A43   A(14,15,16)           119.447          estimate D2E/DX2                !
 ! A44   A(14,15,36)           119.3529         estimate D2E/DX2                !
 ! A45   A(16,15,36)           121.1873         estimate D2E/DX2                !
 ! A46   A(13,16,15)           118.2769         estimate D2E/DX2                !
 ! A47   A(13,16,37)           120.7278         estimate D2E/DX2                !
 ! A48   A(15,16,37)           120.9895         estimate D2E/DX2                !
 ! A49   A(13,17,20)           120.1059         estimate D2E/DX2                !
 ! A50   A(13,17,23)           120.6934         estimate D2E/DX2                !
 ! A51   A(20,17,23)           119.1456         estimate D2E/DX2                !
 ! A52   A(10,18,19)           122.4197         estimate D2E/DX2                !
 ! A53   A(10,18,24)           118.6091         estimate D2E/DX2                !
 ! A54   A(19,18,24)           118.8505         estimate D2E/DX2                !
 ! A55   A(18,19,21)           119.8895         estimate D2E/DX2                !
 ! A56   A(18,19,29)           120.4295         estimate D2E/DX2                !
 ! A57   A(21,19,29)           119.5969         estimate D2E/DX2                !
 ! A58   A(17,20,22)           120.0051         estimate D2E/DX2                !
 ! A59   A(17,20,29)           119.9539         estimate D2E/DX2                !
 ! A60   A(22,20,29)           119.9569         estimate D2E/DX2                !
 ! A61   A(19,21,28)           120.3122         estimate D2E/DX2                !
 ! A62   A(19,21,30)           121.06           estimate D2E/DX2                !
 ! A63   A(28,21,30)           118.5827         estimate D2E/DX2                !
 ! A64   A(20,22,27)           120.0947         estimate D2E/DX2                !
 ! A65   A(20,22,30)           120.753          estimate D2E/DX2                !
 ! A66   A(27,22,30)           119.1086         estimate D2E/DX2                !
 ! A67   A(17,23,26)           120.5886         estimate D2E/DX2                !
 ! A68   A(17,23,38)           119.1692         estimate D2E/DX2                !
 ! A69   A(26,23,38)           120.2254         estimate D2E/DX2                !
 ! A70   A(18,24,25)           120.9675         estimate D2E/DX2                !
 ! A71   A(18,24,39)           119.0226         estimate D2E/DX2                !
 ! A72   A(25,24,39)           119.9742         estimate D2E/DX2                !
 ! A73   A(24,25,28)           120.0936         estimate D2E/DX2                !
 ! A74   A(24,25,40)           119.9986         estimate D2E/DX2                !
 ! A75   A(28,25,40)           119.8917         estimate D2E/DX2                !
 ! A76   A(23,26,27)           120.2385         estimate D2E/DX2                !
 ! A77   A(23,26,41)           119.9692         estimate D2E/DX2                !
 ! A78   A(27,26,41)           119.7813         estimate D2E/DX2                !
 ! A79   A(22,27,26)           119.8415         estimate D2E/DX2                !
 ! A80   A(22,27,42)           119.6806         estimate D2E/DX2                !
 ! A81   A(26,27,42)           120.4742         estimate D2E/DX2                !
 ! A82   A(21,28,25)           119.788          estimate D2E/DX2                !
 ! A83   A(21,28,43)           119.6586         estimate D2E/DX2                !
 ! A84   A(25,28,43)           120.5484         estimate D2E/DX2                !
 ! A85   A(19,29,20)           101.0489         estimate D2E/DX2                !
 ! A86   A(21,30,22)           101.3676         estimate D2E/DX2                !
 ! A87   A(50,51,52)           119.9411         estimate D2E/DX2                !
 ! A88   A(50,51,53)           120.581          estimate D2E/DX2                !
 ! A89   A(52,51,53)           119.4779         estimate D2E/DX2                !
 ! A90   A(49,52,51)           119.7945         estimate D2E/DX2                !
 ! A91   A(49,52,55)           119.7452         estimate D2E/DX2                !
 ! A92   A(51,52,55)           120.4602         estimate D2E/DX2                !
 ! A93   A(51,53,54)           119.6755         estimate D2E/DX2                !
 ! A94   A(51,53,56)           120.1378         estimate D2E/DX2                !
 ! A95   A(54,53,56)           120.1867         estimate D2E/DX2                !
 ! A96   A(52,55,57)           119.473          estimate D2E/DX2                !
 ! A97   A(52,55,58)           119.9203         estimate D2E/DX2                !
 ! A98   A(57,55,58)           120.6066         estimate D2E/DX2                !
 ! A99   A(53,56,57)           120.3116         estimate D2E/DX2                !
 ! A100  A(53,56,59)           119.842          estimate D2E/DX2                !
 ! A101  A(57,56,59)           119.8464         estimate D2E/DX2                !
 ! A102  A(55,57,56)           120.1395         estimate D2E/DX2                !
 ! A103  A(55,57,60)           119.6877         estimate D2E/DX2                !
 ! A104  A(56,57,60)           120.1728         estimate D2E/DX2                !
 ! A105  L(2,1,5,3,-1)         182.5441         estimate D2E/DX2                !
 ! A106  L(3,1,48,2,-1)        176.7043         estimate D2E/DX2                !
 ! A107  L(4,1,6,2,-1)         183.1586         estimate D2E/DX2                !
 ! A108  L(1,2,46,15,-1)       179.1436         estimate D2E/DX2                !
 ! A109  L(1,3,44,7,-1)        180.8036         estimate D2E/DX2                !
 ! A110  L(1,4,45,8,-1)        179.6183         estimate D2E/DX2                !
 ! A111  L(1,48,49,9,-1)       169.5016         estimate D2E/DX2                !
 ! A112  L(48,49,52,10,-1)     179.978          estimate D2E/DX2                !
 ! A113  L(2,1,5,3,-2)         183.6239         estimate D2E/DX2                !
 ! A114  L(3,1,48,2,-2)        181.1599         estimate D2E/DX2                !
 ! A115  L(4,1,6,2,-2)         181.8718         estimate D2E/DX2                !
 ! A116  L(1,2,46,15,-2)       179.7174         estimate D2E/DX2                !
 ! A117  L(1,3,44,7,-2)        182.9517         estimate D2E/DX2                !
 ! A118  L(1,4,45,8,-2)        180.3677         estimate D2E/DX2                !
 ! A119  L(1,48,49,9,-2)       177.9936         estimate D2E/DX2                !
 ! A120  L(48,49,52,10,-2)     180.0142         estimate D2E/DX2                !
 ! D1    D(3,1,5,7)             28.188          estimate D2E/DX2                !
 ! D2    D(3,1,5,11)          -153.7774         estimate D2E/DX2                !
 ! D3    D(4,1,5,7)            -61.3907         estimate D2E/DX2                !
 ! D4    D(4,1,5,11)           116.6438         estimate D2E/DX2                !
 ! D5    D(6,1,5,7)            120.3445         estimate D2E/DX2                !
 ! D6    D(6,1,5,11)           -61.6209         estimate D2E/DX2                !
 ! D7    D(48,1,5,7)          -150.865          estimate D2E/DX2                !
 ! D8    D(48,1,5,11)           27.1696         estimate D2E/DX2                !
 ! D9    D(2,1,6,12)          -104.3865         estimate D2E/DX2                !
 ! D10   D(2,1,6,14)            82.1258         estimate D2E/DX2                !
 ! D11   D(3,1,6,12)           165.0992         estimate D2E/DX2                !
 ! D12   D(3,1,6,14)            -8.3885         estimate D2E/DX2                !
 ! D13   D(5,1,6,12)            73.2117         estimate D2E/DX2                !
 ! D14   D(5,1,6,14)          -100.276          estimate D2E/DX2                !
 ! D15   D(48,1,6,12)          -18.194          estimate D2E/DX2                !
 ! D16   D(48,1,6,14)          168.3183         estimate D2E/DX2                !
 ! D17   D(2,1,52,51)          132.5218         estimate D2E/DX2                !
 ! D18   D(2,1,52,55)          -51.9597         estimate D2E/DX2                !
 ! D19   D(4,1,52,51)         -134.5142         estimate D2E/DX2                !
 ! D20   D(4,1,52,55)           41.0043         estimate D2E/DX2                !
 ! D21   D(5,1,52,51)          -43.7608         estimate D2E/DX2                !
 ! D22   D(5,1,52,55)          131.7577         estimate D2E/DX2                !
 ! D23   D(6,1,52,51)           42.3979         estimate D2E/DX2                !
 ! D24   D(6,1,52,55)         -142.0836         estimate D2E/DX2                !
 ! D25   D(1,5,7,8)            177.6255         estimate D2E/DX2                !
 ! D26   D(1,5,7,47)            -1.855          estimate D2E/DX2                !
 ! D27   D(11,5,7,8)            -0.4584         estimate D2E/DX2                !
 ! D28   D(11,5,7,47)         -179.9389         estimate D2E/DX2                !
 ! D29   D(1,5,11,10)         -177.2621         estimate D2E/DX2                !
 ! D30   D(1,5,11,33)            1.7181         estimate D2E/DX2                !
 ! D31   D(7,5,11,10)            0.8839         estimate D2E/DX2                !
 ! D32   D(7,5,11,33)          179.864          estimate D2E/DX2                !
 ! D33   D(1,6,12,13)         -169.9869         estimate D2E/DX2                !
 ! D34   D(1,6,12,34)            9.4615         estimate D2E/DX2                !
 ! D35   D(14,6,12,13)           3.8245         estimate D2E/DX2                !
 ! D36   D(14,6,12,34)        -176.7271         estimate D2E/DX2                !
 ! D37   D(1,6,14,15)          172.8549         estimate D2E/DX2                !
 ! D38   D(1,6,14,35)           -7.1854         estimate D2E/DX2                !
 ! D39   D(12,6,14,15)          -0.8729         estimate D2E/DX2                !
 ! D40   D(12,6,14,35)         179.0867         estimate D2E/DX2                !
 ! D41   D(5,7,8,9)             -0.3477         estimate D2E/DX2                !
 ! D42   D(5,7,8,31)          -179.9382         estimate D2E/DX2                !
 ! D43   D(47,7,8,9)           179.1179         estimate D2E/DX2                !
 ! D44   D(47,7,8,31)           -0.4726         estimate D2E/DX2                !
 ! D45   D(7,8,9,10)             0.7583         estimate D2E/DX2                !
 ! D46   D(7,8,9,32)          -179.2799         estimate D2E/DX2                !
 ! D47   D(31,8,9,10)         -179.6582         estimate D2E/DX2                !
 ! D48   D(31,8,9,32)            0.3036         estimate D2E/DX2                !
 ! D49   D(8,9,10,11)           -0.3768         estimate D2E/DX2                !
 ! D50   D(8,9,10,18)         -175.7502         estimate D2E/DX2                !
 ! D51   D(32,9,10,11)         179.6614         estimate D2E/DX2                !
 ! D52   D(32,9,10,18)           4.288          estimate D2E/DX2                !
 ! D53   D(9,10,11,5)           -0.4682         estimate D2E/DX2                !
 ! D54   D(9,10,11,33)        -179.4369         estimate D2E/DX2                !
 ! D55   D(18,10,11,5)         175.1846         estimate D2E/DX2                !
 ! D56   D(18,10,11,33)         -3.7841         estimate D2E/DX2                !
 ! D57   D(9,10,18,19)        -125.2633         estimate D2E/DX2                !
 ! D58   D(9,10,18,24)          58.7797         estimate D2E/DX2                !
 ! D59   D(11,10,18,19)         59.3996         estimate D2E/DX2                !
 ! D60   D(11,10,18,24)       -116.5574         estimate D2E/DX2                !
 ! D61   D(6,12,13,16)          -4.0123         estimate D2E/DX2                !
 ! D62   D(6,12,13,17)         174.4557         estimate D2E/DX2                !
 ! D63   D(34,12,13,16)        176.544          estimate D2E/DX2                !
 ! D64   D(34,12,13,17)         -4.9881         estimate D2E/DX2                !
 ! D65   D(12,13,16,15)          1.1605         estimate D2E/DX2                !
 ! D66   D(12,13,16,37)       -179.7113         estimate D2E/DX2                !
 ! D67   D(17,13,16,15)       -177.193          estimate D2E/DX2                !
 ! D68   D(17,13,16,37)          1.9352         estimate D2E/DX2                !
 ! D69   D(12,13,17,20)        -73.71           estimate D2E/DX2                !
 ! D70   D(12,13,17,23)        103.5675         estimate D2E/DX2                !
 ! D71   D(16,13,17,20)        104.6454         estimate D2E/DX2                !
 ! D72   D(16,13,17,23)        -78.077          estimate D2E/DX2                !
 ! D73   D(6,14,15,16)          -1.709          estimate D2E/DX2                !
 ! D74   D(6,14,15,36)         179.5737         estimate D2E/DX2                !
 ! D75   D(35,14,15,16)        178.3323         estimate D2E/DX2                !
 ! D76   D(35,14,15,36)         -0.385          estimate D2E/DX2                !
 ! D77   D(14,15,16,13)          1.4732         estimate D2E/DX2                !
 ! D78   D(14,15,16,37)       -177.6526         estimate D2E/DX2                !
 ! D79   D(36,15,16,13)       -179.8337         estimate D2E/DX2                !
 ! D80   D(36,15,16,37)          1.0404         estimate D2E/DX2                !
 ! D81   D(13,17,20,22)        174.6479         estimate D2E/DX2                !
 ! D82   D(13,17,20,29)         -8.6873         estimate D2E/DX2                !
 ! D83   D(23,17,20,22)         -2.6717         estimate D2E/DX2                !
 ! D84   D(23,17,20,29)        173.9931         estimate D2E/DX2                !
 ! D85   D(13,17,23,26)       -175.0605         estimate D2E/DX2                !
 ! D86   D(13,17,23,38)          3.4512         estimate D2E/DX2                !
 ! D87   D(20,17,23,26)          2.2429         estimate D2E/DX2                !
 ! D88   D(20,17,23,38)       -179.2454         estimate D2E/DX2                !
 ! D89   D(10,18,19,21)       -173.0531         estimate D2E/DX2                !
 ! D90   D(10,18,19,29)         10.2947         estimate D2E/DX2                !
 ! D91   D(24,18,19,21)          2.8946         estimate D2E/DX2                !
 ! D92   D(24,18,19,29)       -173.7576         estimate D2E/DX2                !
 ! D93   D(10,18,24,25)        173.7156         estimate D2E/DX2                !
 ! D94   D(10,18,24,39)         -4.1094         estimate D2E/DX2                !
 ! D95   D(19,18,24,25)         -2.3882         estimate D2E/DX2                !
 ! D96   D(19,18,24,39)        179.7868         estimate D2E/DX2                !
 ! D97   D(18,19,21,28)         -0.6875         estimate D2E/DX2                !
 ! D98   D(18,19,21,30)       -178.2104         estimate D2E/DX2                !
 ! D99   D(29,19,21,28)        175.9927         estimate D2E/DX2                !
 ! D100  D(29,19,21,30)         -1.5302         estimate D2E/DX2                !
 ! D101  D(18,19,29,20)       -137.4736         estimate D2E/DX2                !
 ! D102  D(21,19,29,20)         45.8645         estimate D2E/DX2                !
 ! D103  D(17,20,22,27)          0.5635         estimate D2E/DX2                !
 ! D104  D(17,20,22,30)        178.1367         estimate D2E/DX2                !
 ! D105  D(29,20,22,27)       -176.1012         estimate D2E/DX2                !
 ! D106  D(29,20,22,30)          1.472          estimate D2E/DX2                !
 ! D107  D(17,20,29,19)        137.3837         estimate D2E/DX2                !
 ! D108  D(22,20,29,19)        -45.9499         estimate D2E/DX2                !
 ! D109  D(19,21,28,25)         -2.0898         estimate D2E/DX2                !
 ! D110  D(19,21,28,43)        178.7188         estimate D2E/DX2                !
 ! D111  D(30,21,28,25)        175.4938         estimate D2E/DX2                !
 ! D112  D(30,21,28,43)         -3.6976         estimate D2E/DX2                !
 ! D113  D(19,21,30,22)        -43.1494         estimate D2E/DX2                !
 ! D114  D(28,21,30,22)        139.2858         estimate D2E/DX2                !
 ! D115  D(20,22,27,26)          2.0097         estimate D2E/DX2                !
 ! D116  D(20,22,27,42)       -178.6846         estimate D2E/DX2                !
 ! D117  D(30,22,27,26)       -175.6033         estimate D2E/DX2                !
 ! D118  D(30,22,27,42)          3.7024         estimate D2E/DX2                !
 ! D119  D(20,22,30,21)         43.1049         estimate D2E/DX2                !
 ! D120  D(27,22,30,21)       -139.2983         estimate D2E/DX2                !
 ! D121  D(17,23,26,27)          0.3157         estimate D2E/DX2                !
 ! D122  D(17,23,26,41)        179.1107         estimate D2E/DX2                !
 ! D123  D(38,23,26,27)       -178.1803         estimate D2E/DX2                !
 ! D124  D(38,23,26,41)          0.6148         estimate D2E/DX2                !
 ! D125  D(18,24,25,28)         -0.3665         estimate D2E/DX2                !
 ! D126  D(18,24,25,40)       -178.9068         estimate D2E/DX2                !
 ! D127  D(39,24,25,28)        177.438          estimate D2E/DX2                !
 ! D128  D(39,24,25,40)         -1.1024         estimate D2E/DX2                !
 ! D129  D(24,25,28,21)          2.6202         estimate D2E/DX2                !
 ! D130  D(24,25,28,43)       -178.1957         estimate D2E/DX2                !
 ! D131  D(40,25,28,21)       -178.8378         estimate D2E/DX2                !
 ! D132  D(40,25,28,43)          0.3462         estimate D2E/DX2                !
 ! D133  D(23,26,27,22)         -2.4568         estimate D2E/DX2                !
 ! D134  D(23,26,27,42)        178.2431         estimate D2E/DX2                !
 ! D135  D(41,26,27,22)        178.7459         estimate D2E/DX2                !
 ! D136  D(41,26,27,42)         -0.5543         estimate D2E/DX2                !
 ! D137  D(50,51,52,49)          0.0185         estimate D2E/DX2                !
 ! D138  D(50,51,52,55)        179.9903         estimate D2E/DX2                !
 ! D139  D(53,51,52,49)       -179.9903         estimate D2E/DX2                !
 ! D140  D(53,51,52,55)         -0.0185         estimate D2E/DX2                !
 ! D141  D(50,51,53,54)         -0.0054         estimate D2E/DX2                !
 ! D142  D(50,51,53,56)        180.0            estimate D2E/DX2                !
 ! D143  D(52,51,53,54)       -179.9965         estimate D2E/DX2                !
 ! D144  D(52,51,53,56)          0.0088         estimate D2E/DX2                !
 ! D145  D(49,52,55,57)        179.9904         estimate D2E/DX2                !
 ! D146  D(49,52,55,58)         -0.0246         estimate D2E/DX2                !
 ! D147  D(51,52,55,57)          0.0186         estimate D2E/DX2                !
 ! D148  D(51,52,55,58)       -179.9964         estimate D2E/DX2                !
 ! D149  D(51,53,56,57)          0.0006         estimate D2E/DX2                !
 ! D150  D(51,53,56,59)        179.994          estimate D2E/DX2                !
 ! D151  D(54,53,56,57)       -179.994          estimate D2E/DX2                !
 ! D152  D(54,53,56,59)         -0.0006         estimate D2E/DX2                !
 ! D153  D(52,55,57,56)         -0.0091         estimate D2E/DX2                !
 ! D154  D(52,55,57,60)        179.9963         estimate D2E/DX2                !
 ! D155  D(58,55,57,56)       -179.994          estimate D2E/DX2                !
 ! D156  D(58,55,57,60)          0.0114         estimate D2E/DX2                !
 ! D157  D(53,56,57,55)         -0.0004         estimate D2E/DX2                !
 ! D158  D(53,56,57,60)        179.9942         estimate D2E/DX2                !
 ! D159  D(59,56,57,55)       -179.9939         estimate D2E/DX2                !
 ! D160  D(59,56,57,60)          0.0007         estimate D2E/DX2                !
 --------------------------------------------------------------------------------
 Trust Radius=3.00D-01 FncErr=1.00D-07 GrdErr=1.00D-06 EigMax=2.50D+02 EigMin=1.00D-04
 Number of steps in this run=    356 maximum allowed number of steps=    360.
 GradGradGradGradGradGradGradGradGradGradGradGradGradGradGradGradGradGrad

 Stoichiometry    C32H19MnN3O3S2(1+)
 Framework group  C1[X(C32H19MnN3O3S2)]
 Deg. of freedom   174
 Full point group                 C1      NOp   1
 Largest Abelian subgroup         C1      NOp   1
 Largest concise Abelian subgroup C1      NOp   1
                         Standard orientation:                         
 ---------------------------------------------------------------------
 Center     Atomic      Atomic             Coordinates (Angstroms)
 Number     Number       Type             X           Y           Z
 ---------------------------------------------------------------------
      1         25           0        3.139914    0.266571   -0.193786
      2          6           0        3.953747    0.543443   -1.814723
      3          6           0        4.519499   -0.803811    0.334362
      4          6           0        3.976062    1.702207    0.580615
      5          7           0        2.050314   -0.109853    1.625258
      6          7           0        2.045981   -1.405257   -1.022735
      7          6           0        2.652557   -0.408990    2.789828
      8          6           0        1.946328   -0.603154    3.968751
      9          6           0        0.557847   -0.480151    3.965041
     10          6           0       -0.080593   -0.179295    2.763136
     11          6           0        0.720622   -0.011848    1.634865
     12          6           0        0.751256   -1.290467   -1.328678
     13          6           0       -0.076572   -2.356535   -1.675538
     14          6           0        2.590766   -2.629854   -1.133249
     15          6           0        1.864405   -3.745586   -1.526242
     16          6           0        0.502249   -3.618326   -1.788988
     17          6           0       -1.527170   -2.072990   -1.865289
     18          6           0       -1.543377    0.069570    2.632936
     19          6           0       -2.354843   -0.649660    1.733214
     20          6           0       -2.350791   -1.829461   -0.750040
     21          6           0       -3.693679   -0.275741    1.547349
     22          6           0       -3.687279   -1.453179   -0.935098
     23          6           0       -2.075711   -1.989094   -3.147625
     24          6           0       -2.114173    1.111820    3.372057
     25          6           0       -3.446808    1.471643    3.191735
     26          6           0       -3.408249   -1.623413   -3.326233
     27          6           0       -4.208247   -1.330397   -2.225625
     28          6           0       -4.231404    0.798182    2.260941
     29         16           0       -1.718604   -2.086012    0.895467
     30         16           0       -4.757123   -1.188939    0.456955
     31          1           0        2.487804   -0.842816    4.883943
     32          1           0       -0.018068   -0.616858    4.882631
     33          1           0        0.238177    0.231658    0.694982
     34          1           0        0.318219   -0.294852   -1.294292
     35          1           0        3.650520   -2.729678   -0.900243
     36          1           0        2.366458   -4.710119   -1.603244
     37          1           0       -0.100879   -4.486135   -2.062743
     38          1           0       -1.440294   -2.190074   -4.012390
     39          1           0       -1.488736    1.668761    4.072701
     40          1           0       -3.870832    2.298478    3.763691
     41          1           0       -3.822292   -1.546963   -4.332958
     42          1           0       -5.244662   -1.015829   -2.362542
     43          1           0       -5.268884    1.093357    2.092528
     44          8           0        5.419059   -1.427960    0.664939
     45          8           0        4.488125    2.597288    1.068513
     46          8           0        4.450200    0.702073   -2.829181
     47          1           0        3.740389   -0.488343    2.783047
     48          7           0        1.675644    1.508483   -0.869692
     49          6           0        0.766221    2.201271   -1.053323
     50          1           0       -1.809533    1.572174   -0.666224
     51          6           0       -1.661434    2.589461   -1.032071
     52          6           0       -0.364527    3.061922   -1.281295
     53          6           0       -2.750141    3.427259   -1.254986
     54          1           0       -3.760694    3.062969   -1.062078
     55          6           0       -0.161562    4.367880   -1.752004
     56          6           0       -2.550070    4.726612   -1.722978
     57          6           0       -1.258915    5.195111   -1.970655
     58          1           0        0.851155    4.726318   -1.943001
     59          1           0       -3.407727    5.379784   -1.896299
     60          1           0       -1.105061    6.211693   -2.336729
 ---------------------------------------------------------------------
 Rotational constants (GHZ):           0.1051540           0.0678786           0.0644339
 General basis read from cards:  (5D, 7F)
 There are   755 symmetry adapted cartesian basis functions of A   symmetry.
 There are   708 symmetry adapted basis functions of A   symmetry.
   708 basis functions,  1259 primitive gaussians,   755 cartesian basis functions
   156 alpha electrons      156 beta electrons
       nuclear repulsion energy      5709.7306250576 Hartrees.
 NAtoms=   60 NActive=   60 NUniq=   60 SFac= 1.00D+00 NAtFMM=   60 NAOKFM=T Big=T
 Integral buffers will be    131072 words long.
 Raffenetti 2 integral format.
 Two-electron integral symmetry is turned on.
 Nuclear repulsion after empirical dispersion term =     5709.6690544396 Hartrees.
 ------------------------------------------------------------------------------
 Polarizable Continuum Model (PCM)
 =================================
 Model                : PCM.
 Atomic radii         : UFF (Universal Force Field).
 Polarization charges : Total charges.
 Charge compensation  : None.
 Solution method      : On-the-fly selection.
 Cavity type          : Scaled VdW (van der Waals Surface) (Alpha=1.100).
 Cavity algorithm     : GePol (No added spheres)
                        Default sphere list used, NSphG=   60.
                        Lebedev-Laikov grids with approx.  5.0 points / Ang**2.
                        Smoothing algorithm: York/Karplus (Gamma=1.0000).
                        Polarization charges: spherical gaussians, with
                                              point-specific exponents (IZeta= 3).
                        Self-potential: point-specific (ISelfS= 7).
                        Self-field    : sphere-specific E.n sum rule (ISelfD= 2).
 1st derivatives      : Analytical E(r).r(x)/FMM algorithm (CHGder, D1EAlg=3).
                        Cavity 1st derivative terms included.
 Solvent              : TetraHydroFuran, Eps=   7.425700 Eps(inf)=   1.974025
 ------------------------------------------------------------------------------
 One-electron integrals computed using PRISM.
 PrsmSu:  requested number of processors reduced to:  11 ShMem   1 Linda.
 NBasis=   708 RedAO= T EigKep=  2.26D-04  NBF=   708
 NBsUse=   708 1.00D-06 EigRej= -1.00D+00 NBFU=   708
 ExpMin= 3.93D-02 ExpMax= 2.77D+05 ExpMxC= 2.68D+03 IAcc=3 IRadAn=         5 AccDes= 0.00D+00
 Harris functional with IExCor= 4639 and IRadAn=       5 diagonalized for initial guess.
 HarFok:  IExCor= 4639 AccDes= 0.00D+00 IRadAn=         5 IDoV= 1 UseB2=F ITyADJ=14
 ICtDFT=  3500011 ScaDFX=  1.000000  1.000000  1.000000  1.000000
 FoFCou: FMM=F IPFlag=           0 FMFlag=      100000 FMFlg1=        2001
         NFxFlg=           0 DoJE=T BraDBF=F KetDBF=T FulRan=T
         wScrn=  0.000000 ICntrl=       500 IOpCl=  0 I1Cent=   200000004 NGrid=           0
         NMat0=    1 NMatS0=      1 NMatT0=    0 NMatD0=    1 NMtDS0=    0 NMtDT0=    0
 Petite list used in FoFCou.
 Requested convergence on RMS density matrix=1.00D-08 within 128 cycles.
 Requested convergence on MAX density matrix=1.00D-06.
 Requested convergence on             energy=1.00D-06.
 No special actions if energy rises.
 CoulSu:  requested number of processors reduced to:  18 ShMem   1 Linda.
 CoulSu:  requested number of processors reduced to:  10 ShMem   1 Linda.
 Inv3:  Mode=1 IEnd=    65735283.
 Iteration    1 A*A^-1 deviation from unit magnitude is 3.33D-15 for   2359.
 Iteration    1 A*A^-1 deviation from orthogonality  is 2.76D-15 for   3425   3307.
 Iteration    1 A^-1*A deviation from unit magnitude is 3.11D-15 for   1654.
 Iteration    1 A^-1*A deviation from orthogonality  is 1.89D-15 for   4313   1848.
 CoulSu:  requested number of processors reduced to:  10 ShMem   1 Linda.
 CoulSu:  requested number of processors reduced to:  10 ShMem   1 Linda.
 CoulSu:  requested number of processors reduced to:  22 ShMem   1 Linda.
 CoulSu:  requested number of processors reduced to:  20 ShMem   1 Linda.
 Error on total polarization charges =  0.01991
 SCF Done:  E(RwB97XD) =  -3566.16229499     A.U. after   18 cycles
            NFock= 18  Conv=0.81D-08     -V/T= 2.0056

 **********************************************************************

            Population analysis using the SCF density.

 **********************************************************************

 Orbital symmetries:
       Occupied  (A) (A) (A) (A) (A) (A) (A) (A) (A) (A) (A) (A)
                 (A) (A) (A) (A) (A) (A) (A) (A) (A) (A) (A) (A)
                 (A) (A) (A) (A) (A) (A) (A) (A) (A) (A) (A) (A)
                 (A) (A) (A) (A) (A) (A) (A) (A) (A) (A) (A) (A)
                 (A) (A) (A) (A) (A) (A) (A) (A) (A) (A) (A) (A)
                 (A) (A) (A) (A) (A) (A) (A) (A) (A) (A) (A) (A)
                 (A) (A) (A) (A) (A) (A) (A) (A) (A) (A) (A) (A)
                 (A) (A) (A) (A) (A) (A) (A) (A) (A) (A) (A) (A)
                 (A) (A) (A) (A) (A) (A) (A) (A) (A) (A) (A) (A)
                 (A) (A) (A) (A) (A) (A) (A) (A) (A) (A) (A) (A)
                 (A) (A) (A) (A) (A) (A) (A) (A) (A) (A) (A) (A)
                 (A) (A) (A) (A) (A) (A) (A) (A) (A) (A) (A) (A)
                 (A) (A) (A) (A) (A) (A) (A) (A) (A) (A) (A) (A)
       Virtual   (A) (A) (A) (A) (A) (A) (A) (A) (A) (A) (A) (A)
                 (A) (A) (A) (A) (A) (A) (A) (A) (A) (A) (A) (A)
                 (A) (A) (A) (A) (A) (A) (A) (A) (A) (A) (A) (A)
                 (A) (A) (A) (A) (A) (A) (A) (A) (A) (A) (A) (A)
                 (A) (A) (A) (A) (A) (A) (A) (A) (A) (A) (A) (A)
                 (A) (A) (A) (A) (A) (A) (A) (A) (A) (A) (A) (A)
                 (A) (A) (A) (A) (A) (A) (A) (A) (A) (A) (A) (A)
                 (A) (A) (A) (A) (A) (A) (A) (A) (A) (A) (A) (A)
                 (A) (A) (A) (A) (A) (A) (A) (A) (A) (A) (A) (A)
                 (A) (A) (A) (A) (A) (A) (A) (A) (A) (A) (A) (A)
                 (A) (A) (A) (A) (A) (A) (A) (A) (A) (A) (A) (A)
                 (A) (A) (A) (A) (A) (A) (A) (A) (A) (A) (A) (A)
                 (A) (A) (A) (A) (A) (A) (A) (A) (A) (A) (A) (A)
                 (A) (A) (A) (A) (A) (A) (A) (A) (A) (A) (A) (A)
                 (A) (A) (A) (A) (A) (A) (A) (A) (A) (A) (A) (A)
                 (A) (A) (A) (A) (A) (A) (A) (A) (A) (A) (A) (A)
                 (A) (A) (A) (A) (A) (A) (A) (A) (A) (A) (A) (A)
                 (A) (A) (A) (A) (A) (A) (A) (A) (A) (A) (A) (A)
                 (A) (A) (A) (A) (A) (A) (A) (A) (A) (A) (A) (A)
                 (A) (A) (A) (A) (A) (A) (A) (A) (A) (A) (A) (A)
                 (A) (A) (A) (A) (A) (A) (A) (A) (A) (A) (A) (A)
                 (A) (A) (A) (A) (A) (A) (A) (A) (A) (A) (A) (A)
                 (A) (A) (A) (A) (A) (A) (A) (A) (A) (A) (A) (A)
                 (A) (A) (A) (A) (A) (A) (A) (A) (A) (A) (A) (A)
                 (A) (A) (A) (A) (A) (A) (A) (A) (A) (A) (A) (A)
                 (A) (A) (A) (A) (A) (A) (A) (A) (A) (A) (A) (A)
                 (A) (A) (A) (A) (A) (A) (A) (A) (A) (A) (A) (A)
                 (A) (A) (A) (A) (A) (A) (A) (A) (A) (A) (A) (A)
                 (A) (A) (A) (A) (A) (A) (A) (A) (A) (A) (A) (A)
                 (A) (A) (A) (A) (A) (A) (A) (A) (A) (A) (A) (A)
                 (A) (A) (A) (A) (A) (A) (A) (A) (A) (A) (A) (A)
                 (A) (A) (A) (A) (A) (A) (A) (A) (A) (A) (A) (A)
                 (A) (A) (A) (A) (A) (A) (A) (A) (A) (A) (A) (A)
                 (A) (A) (A) (A) (A) (A) (A) (A) (A) (A) (A) (A)
                 (A) (A) (A) (A) (A) (A) (A) (A) (A) (A) (A) (A)
                 (A) (A) (A) (A) (A) (A) (A) (A) (A) (A) (A) (A)
                 (A) (A) (A) (A) (A) (A) (A) (A) (A) (A) (A) (A)
                 (A) (A) (A) (A) (A) (A) (A) (A) (A) (A) (A) (A)
                 (A) (A) (A) (A) (A) (A) (A) (A) (A) (A) (A) (A)
                 (A) (A) (A) (A) (A) (A) (A) (A) (A) (A) (A) (A)
                 (A) (A) (A) (A) (A) (A) (A) (A) (A) (A) (A) (A)
                 (A) (A) (A) (A) (A) (A) (A) (A) (A) (A) (A) (A)
                 (A) (A) (A) (A) (A) (A) (A) (A) (A) (A) (A) (A)
                 (A) (A) (A) (A) (A) (A) (A) (A) (A) (A) (A) (A)
                 (A) (A) (A) (A) (A) (A) (A) (A) (A) (A) (A) (A)
                 (A) (A) (A) (A) (A) (A) (A) (A) (A) (A) (A) (A)
 The electronic state is 1-A.
 Alpha  occ. eigenvalues -- -235.72081 -89.05228 -89.04799 -27.49083 -23.54868
 Alpha  occ. eigenvalues --  -23.54662 -23.54635 -19.36191 -19.36154 -19.36080
 Alpha  occ. eigenvalues --  -14.52263 -14.52041 -14.52000 -10.43681 -10.43621
 Alpha  occ. eigenvalues --  -10.43605 -10.41505 -10.38026 -10.37991 -10.37977
 Alpha  occ. eigenvalues --  -10.37924 -10.37913 -10.37076 -10.36958 -10.36694
 Alpha  occ. eigenvalues --  -10.36630 -10.35806 -10.35731 -10.35671 -10.35661
 Alpha  occ. eigenvalues --  -10.35535 -10.35521 -10.35377 -10.35358 -10.34531
 Alpha  occ. eigenvalues --  -10.34531 -10.34372 -10.34046 -10.33979 -10.33808
 Alpha  occ. eigenvalues --  -10.33769 -10.33618 -10.33569 -10.33378 -10.33340
 Alpha  occ. eigenvalues --   -8.10293  -8.09939  -6.05758  -6.05400  -6.05364
 Alpha  occ. eigenvalues --   -6.05005  -6.04732  -6.04372  -3.28320  -2.13856
 Alpha  occ. eigenvalues --   -2.13362  -2.13345  -1.25208  -1.25121  -1.25071
 Alpha  occ. eigenvalues --   -1.09851  -1.09429  -1.07361  -1.02312  -1.00083
 Alpha  occ. eigenvalues --   -0.99918  -0.95943  -0.94808  -0.93264  -0.92515
 Alpha  occ. eigenvalues --   -0.91166  -0.90440  -0.89702  -0.88245  -0.87571
 Alpha  occ. eigenvalues --   -0.86687  -0.84044  -0.79953  -0.77409  -0.77299
 Alpha  occ. eigenvalues --   -0.77125  -0.76736  -0.76351  -0.73934  -0.73610
 Alpha  occ. eigenvalues --   -0.71645  -0.71124  -0.70165  -0.68233  -0.67875
 Alpha  occ. eigenvalues --   -0.66901  -0.66813  -0.66110  -0.65913  -0.63804
 Alpha  occ. eigenvalues --   -0.62851  -0.62392  -0.62055  -0.61391  -0.60503
 Alpha  occ. eigenvalues --   -0.59580  -0.59310  -0.59191  -0.59050  -0.58591
 Alpha  occ. eigenvalues --   -0.58258  -0.58137  -0.58046  -0.57271  -0.57067
 Alpha  occ. eigenvalues --   -0.56279  -0.56144  -0.56097  -0.55935  -0.55022
 Alpha  occ. eigenvalues --   -0.54902  -0.54778  -0.54761  -0.54067  -0.53836
 Alpha  occ. eigenvalues --   -0.53630  -0.53308  -0.53275  -0.53028  -0.52630
 Alpha  occ. eigenvalues --   -0.52163  -0.50982  -0.50321  -0.49805  -0.49448
 Alpha  occ. eigenvalues --   -0.49370  -0.48608  -0.48316  -0.47831  -0.46479
 Alpha  occ. eigenvalues --   -0.46302  -0.45871  -0.45472  -0.45096  -0.43551
 Alpha  occ. eigenvalues --   -0.42919  -0.41848  -0.41169  -0.40923  -0.39713
 Alpha  occ. eigenvalues --   -0.38660  -0.38039  -0.37901  -0.37373  -0.36645
 Alpha  occ. eigenvalues --   -0.35783  -0.34403  -0.33806  -0.33495  -0.32563
 Alpha  occ. eigenvalues --   -0.31313
 Alpha virt. eigenvalues --   -0.02593  -0.01177  -0.01033  -0.00268   0.00865
 Alpha virt. eigenvalues --    0.01490   0.02083   0.02167   0.02294   0.02507
 Alpha virt. eigenvalues --    0.02697   0.03283   0.03705   0.04652   0.05472
 Alpha virt. eigenvalues --    0.05749   0.07284   0.08172   0.08399   0.08727
 Alpha virt. eigenvalues --    0.09070   0.10086   0.11201   0.11508   0.12874
 Alpha virt. eigenvalues --    0.13942   0.14356   0.14774   0.15207   0.15342
 Alpha virt. eigenvalues --    0.16181   0.17084   0.17483   0.17790   0.18385
 Alpha virt. eigenvalues --    0.18539   0.18712   0.19054   0.19583   0.19804
 Alpha virt. eigenvalues --    0.20465   0.20774   0.21204   0.21416   0.21987
 Alpha virt. eigenvalues --    0.22416   0.22650   0.22992   0.24543   0.25285
 Alpha virt. eigenvalues --    0.25704   0.26759   0.27308   0.28000   0.28749
 Alpha virt. eigenvalues --    0.29760   0.30060   0.30215   0.30634   0.30808
 Alpha virt. eigenvalues --    0.31081   0.32044   0.32454   0.33044   0.33345
 Alpha virt. eigenvalues --    0.33608   0.34304   0.34439   0.34705   0.35163
 Alpha virt. eigenvalues --    0.35537   0.35939   0.36190   0.36882   0.37491
 Alpha virt. eigenvalues --    0.37788   0.38281   0.38470   0.38792   0.39297
 Alpha virt. eigenvalues --    0.39910   0.40945   0.41355   0.41839   0.42008
 Alpha virt. eigenvalues --    0.43196   0.43807   0.44408   0.45193   0.45422
 Alpha virt. eigenvalues --    0.45800   0.46183   0.46468   0.46996   0.47415
 Alpha virt. eigenvalues --    0.47826   0.48063   0.48376   0.48684   0.49123
 Alpha virt. eigenvalues --    0.49612   0.49795   0.50320   0.50542   0.51416
 Alpha virt. eigenvalues --    0.51465   0.51774   0.52505   0.52919   0.53064
 Alpha virt. eigenvalues --    0.53452   0.53614   0.53775   0.54188   0.54295
 Alpha virt. eigenvalues --    0.54516   0.54899   0.55383   0.56011   0.56382
 Alpha virt. eigenvalues --    0.56795   0.57046   0.57616   0.58162   0.58451
 Alpha virt. eigenvalues --    0.58930   0.59230   0.59368   0.59825   0.60158
 Alpha virt. eigenvalues --    0.60537   0.60778   0.61299   0.62310   0.62378
 Alpha virt. eigenvalues --    0.62766   0.63350   0.63691   0.64397   0.64718
 Alpha virt. eigenvalues --    0.64968   0.65340   0.65416   0.65937   0.66578
 Alpha virt. eigenvalues --    0.66979   0.67416   0.68528   0.68589   0.69165
 Alpha virt. eigenvalues --    0.69341   0.69627   0.70495   0.70657   0.70869
 Alpha virt. eigenvalues --    0.70978   0.71373   0.71462   0.71891   0.72025
 Alpha virt. eigenvalues --    0.72379   0.72554   0.72675   0.73253   0.73682
 Alpha virt. eigenvalues --    0.73825   0.74318   0.74340   0.74580   0.74974
 Alpha virt. eigenvalues --    0.75092   0.75379   0.76050   0.76178   0.76552
 Alpha virt. eigenvalues --    0.76876   0.77615   0.77913   0.78096   0.78274
 Alpha virt. eigenvalues --    0.78568   0.78775   0.79107   0.79656   0.80052
 Alpha virt. eigenvalues --    0.80460   0.80819   0.80975   0.81333   0.81757
 Alpha virt. eigenvalues --    0.82209   0.82625   0.82944   0.83144   0.83828
 Alpha virt. eigenvalues --    0.84063   0.84197   0.84487   0.84772   0.85224
 Alpha virt. eigenvalues --    0.85851   0.86023   0.86854   0.87169   0.87432
 Alpha virt. eigenvalues --    0.87942   0.88558   0.89296   0.89429   0.89532
 Alpha virt. eigenvalues --    0.90175   0.91194   0.91390   0.92351   0.92542
 Alpha virt. eigenvalues --    0.93549   0.94067   0.94842   0.95481   0.95819
 Alpha virt. eigenvalues --    0.96964   0.97090   0.98068   0.98194   0.99011
 Alpha virt. eigenvalues --    0.99906   1.01532   1.02262   1.02734   1.03534
 Alpha virt. eigenvalues --    1.04552   1.05181   1.05724   1.06900   1.07808
 Alpha virt. eigenvalues --    1.08538   1.09568   1.09809   1.10780   1.11130
 Alpha virt. eigenvalues --    1.11369   1.12171   1.12946   1.13394   1.13827
 Alpha virt. eigenvalues --    1.14672   1.15323   1.15699   1.17767   1.18295
 Alpha virt. eigenvalues --    1.19304   1.20120   1.20663   1.21684   1.22060
 Alpha virt. eigenvalues --    1.22884   1.23972   1.24735   1.24868   1.25127
 Alpha virt. eigenvalues --    1.26027   1.26541   1.27333   1.27715   1.28086
 Alpha virt. eigenvalues --    1.28247   1.28309   1.28979   1.29061   1.29314
 Alpha virt. eigenvalues --    1.29654   1.30098   1.30908   1.31349   1.32116
 Alpha virt. eigenvalues --    1.32739   1.33443   1.33627   1.34060   1.34495
 Alpha virt. eigenvalues --    1.34623   1.34835   1.35035   1.35139   1.35620
 Alpha virt. eigenvalues --    1.36294   1.36546   1.37948   1.38015   1.38535
 Alpha virt. eigenvalues --    1.39313   1.41810   1.42780   1.43302   1.44015
 Alpha virt. eigenvalues --    1.46121   1.48076   1.48704   1.49728   1.51166
 Alpha virt. eigenvalues --    1.53807   1.55194   1.56213   1.57197   1.57360
 Alpha virt. eigenvalues --    1.57962   1.59109   1.59614   1.60335   1.63717
 Alpha virt. eigenvalues --    1.64094   1.64739   1.65057   1.65861   1.65939
 Alpha virt. eigenvalues --    1.67143   1.68433   1.69036   1.69609   1.70353
 Alpha virt. eigenvalues --    1.70964   1.71324   1.71420   1.71784   1.72393
 Alpha virt. eigenvalues --    1.72773   1.73227   1.74405   1.74695   1.75386
 Alpha virt. eigenvalues --    1.75609   1.75988   1.76263   1.76431   1.76945
 Alpha virt. eigenvalues --    1.77230   1.77905   1.78336   1.78983   1.79121
 Alpha virt. eigenvalues --    1.79523   1.79856   1.80023   1.80494   1.80694
 Alpha virt. eigenvalues --    1.80901   1.81424   1.81759   1.82215   1.82519
 Alpha virt. eigenvalues --    1.82626   1.83104   1.83793   1.84761   1.85529
 Alpha virt. eigenvalues --    1.85849   1.86938   1.87375   1.87774   1.87998
 Alpha virt. eigenvalues --    1.88166   1.88616   1.89008   1.90170   1.90295
 Alpha virt. eigenvalues --    1.90404   1.91003   1.92305   1.93019   1.93255
 Alpha virt. eigenvalues --    1.94306   1.95096   1.95457   1.96224   1.97136
 Alpha virt. eigenvalues --    1.98103   1.98483   1.98628   1.99572   2.00343
 Alpha virt. eigenvalues --    2.00827   2.00994   2.01501   2.01767   2.02248
 Alpha virt. eigenvalues --    2.02732   2.02897   2.03216   2.04176   2.04366
 Alpha virt. eigenvalues --    2.05154   2.06180   2.06947   2.07292   2.08010
 Alpha virt. eigenvalues --    2.09054   2.09480   2.09917   2.10070   2.10385
 Alpha virt. eigenvalues --    2.11321   2.12622   2.13873   2.14990   2.16173
 Alpha virt. eigenvalues --    2.16809   2.17892   2.18399   2.18654   2.19471
 Alpha virt. eigenvalues --    2.19859   2.20624   2.20959   2.21917   2.22616
 Alpha virt. eigenvalues --    2.22941   2.23584   2.25169   2.26048   2.27378
 Alpha virt. eigenvalues --    2.27619   2.28809   2.29064   2.29754   2.30198
 Alpha virt. eigenvalues --    2.30761   2.31607   2.32012   2.33127   2.33355
 Alpha virt. eigenvalues --    2.33932   2.34294   2.34683   2.35676   2.36073
 Alpha virt. eigenvalues --    2.36456   2.37056   2.37517   2.37820   2.38442
 Alpha virt. eigenvalues --    2.38743   2.39748   2.40261   2.40833   2.41271
 Alpha virt. eigenvalues --    2.43898   2.44880   2.45907   2.46067   2.47487
 Alpha virt. eigenvalues --    2.48358   2.49349   2.52010   2.52480   2.54608
 Alpha virt. eigenvalues --    2.55059   2.57108   2.57459   2.58892   2.58978
 Alpha virt. eigenvalues --    2.60950   2.64688   2.65390   2.65943   2.66065
 Alpha virt. eigenvalues --    2.67442   2.67492   2.67875   2.67939   2.68028
 Alpha virt. eigenvalues --    2.68317   2.68707   2.68762   2.68965   2.69035
 Alpha virt. eigenvalues --    2.69471   2.70635   2.71044   2.74743   2.75436
 Alpha virt. eigenvalues --    2.75796   2.78336   2.78597   2.78815   2.79721
 Alpha virt. eigenvalues --    2.80126   2.81009   2.82527   2.83283   2.83626
 Alpha virt. eigenvalues --    2.84600   2.84883   2.85803   2.86361   2.88049
 Alpha virt. eigenvalues --    2.90299   2.90836   2.92245   2.92601   2.93779
 Alpha virt. eigenvalues --    2.96305   2.98113   2.98472   3.01043   3.02413
 Alpha virt. eigenvalues --    3.03344   3.03619   3.04289   3.05285   3.06007
 Alpha virt. eigenvalues --    3.06835   3.07929   3.08271   3.14372   3.14656
 Alpha virt. eigenvalues --    3.14990   3.18628   3.20398   3.20526   3.20693
 Alpha virt. eigenvalues --    3.20921   3.22148   3.22547   3.24028   3.28131
 Alpha virt. eigenvalues --    3.28504   3.31233   3.35227   3.37299   3.38859
 Alpha virt. eigenvalues --    3.43548   3.47703   3.50455   3.51091   3.53391
 Alpha virt. eigenvalues --    3.56336   3.57478   3.59185   3.59944   3.60169
 Alpha virt. eigenvalues --    3.61178   3.62038   3.64159   3.67838   3.68889
 Alpha virt. eigenvalues --    3.69145   3.76259   3.90334   3.90587   3.95832
 Alpha virt. eigenvalues --    4.02413   4.05211
          Condensed to atoms (all electrons):
 Mulliken charges:
               1
     1  Mn  -0.728331
     2  C    0.377234
     3  C    0.292107
     4  C    0.363211
     5  N   -0.214991
     6  N   -0.211662
     7  C    0.103013
     8  C   -0.038132
     9  C    0.060573
    10  C   -0.084047
    11  C    0.195057
    12  C    0.168018
    13  C   -0.101550
    14  C    0.105640
    15  C   -0.038010
    16  C    0.080306
    17  C   -0.022433
    18  C    0.002819
    19  C   -0.065198
    20  C   -0.050142
    21  C   -0.088160
    22  C   -0.085729
    23  C   -0.004300
    24  C   -0.013410
    25  C   -0.016479
    26  C   -0.016920
    27  C   -0.003656
    28  C   -0.002273
    29  S    0.103876
    30  S    0.097516
    31  H    0.068378
    32  H    0.061533
    33  H   -0.014815
    34  H    0.022881
    35  H    0.075376
    36  H    0.068954
    37  H    0.060951
    38  H    0.041079
    39  H    0.042329
    40  H    0.054397
    41  H    0.054485
    42  H    0.044356
    43  H    0.044711
    44  O   -0.045448
    45  O   -0.044073
    46  O   -0.041945
    47  H    0.075385
    48  N    0.071709
    49  C    0.016950
    50  H    0.041973
    51  C    0.029492
    52  C   -0.134276
    53  C   -0.016560
    54  H    0.056871
    55  C    0.033492
    56  C    0.003953
    57  C   -0.020609
    58  H    0.059145
    59  H    0.063587
    60  H    0.061793
 Sum of Mulliken charges =   1.00000
 Mulliken charges with hydrogens summed into heavy atoms:
               1
     1  Mn  -0.728331
     2  C    0.377234
     3  C    0.292107
     4  C    0.363211
     5  N   -0.214991
     6  N   -0.211662
     7  C    0.178398
     8  C    0.030245
     9  C    0.122106
    10  C   -0.084047
    11  C    0.180241
    12  C    0.190899
    13  C   -0.101550
    14  C    0.181015
    15  C    0.030943
    16  C    0.141257
    17  C   -0.022433
    18  C    0.002819
    19  C   -0.065198
    20  C   -0.050142
    21  C   -0.088160
    22  C   -0.085729
    23  C    0.036778
    24  C    0.028919
    25  C    0.037917
    26  C    0.037565
    27  C    0.040700
    28  C    0.042437
    29  S    0.103876
    30  S    0.097516
    44  O   -0.045448
    45  O   -0.044073
    46  O   -0.041945
    48  N    0.071709
    49  C    0.016950
    51  C    0.071465
    52  C   -0.134276
    53  C    0.040311
    55  C    0.092637
    56  C    0.067540
    57  C    0.041184
         Mulliken charges condensed to fragments:
      1      0.732478
      2      0.267522
 Electronic spatial extent (au):  <R**2>=          19186.4498
 Charge=              1.0000 electrons
 Dipole moment (field-independent basis, Debye):
    X=             -0.6638    Y=              2.5380    Z=             -0.3929  Tot=              2.6526
 Quadrupole moment (field-independent basis, Debye-Ang):
   XX=           -221.2318   YY=           -202.8303   ZZ=           -207.3790
   XY=            -25.9378   XZ=             12.6968   YZ=              3.3779
 Traceless Quadrupole moment (field-independent basis, Debye-Ang):
   XX=            -10.7514   YY=              7.6501   ZZ=              3.1013
   XY=            -25.9378   XZ=             12.6968   YZ=              3.3779
 Octapole moment (field-independent basis, Debye-Ang**2):
  XXX=             31.6274  YYY=            103.6028  ZZZ=             96.0534  XYY=             24.3677
  XXY=             44.2003  XXZ=            -10.6313  XZZ=             10.3835  YZZ=             -6.1970
  YYZ=           -120.1358  XYZ=            -18.8105
 Hexadecapole moment (field-independent basis, Debye-Ang**3):
 XXXX=         -12233.9364 YYYY=          -5699.3995 ZZZZ=          -5252.4960 XXXY=           -329.6825
 XXXZ=            147.5923 YYYX=           -446.7045 YYYZ=           -232.7483 ZZZX=            278.0361
 ZZZY=             88.8655 XXYY=          -3096.0496 XXZZ=          -2843.5212 YYZZ=          -1950.9393
 XXYZ=             83.7524 YYXZ=            -16.5390 ZZXY=            -90.9895
 N-N= 5.709669054440D+03 E-N=-1.977198516074D+04  KE= 3.546168846581D+03
 PrsmSu:  requested number of processors reduced to:  11 ShMem   1 Linda.
 D1PCM: PCM CHGder 1st derivatives, ID1Alg=3 FixD1E=F DoIter=F DoCFld=F I1PDM=0.
 CoulSu:  requested number of processors reduced to:  21 ShMem   1 Linda.
 CoulSu:  requested number of processors reduced to:  17 ShMem   1 Linda.
 CoulSu:  requested number of processors reduced to:  18 ShMem   1 Linda.
 CoulSu:  requested number of processors reduced to:  16 ShMem   1 Linda.
 CoulSu:  requested number of processors reduced to:  10 ShMem   1 Linda.
 CoulSu:  requested number of processors reduced to:  10 ShMem   1 Linda.
 CoulSu:  requested number of processors reduced to:  21 ShMem   1 Linda.
 CoulSu:  requested number of processors reduced to:  21 ShMem   1 Linda.
 Calling FoFJK, ICntrl=      2127 FMM=T ISym2X=0 I1Cent= 0 IOpClX= 0 NMat=1 NMatS=1 NMatT=0.
 ***** Axes restored to original set *****
 -------------------------------------------------------------------
 Center     Atomic                   Forces (Hartrees/Bohr)
 Number     Number              X              Y              Z
 -------------------------------------------------------------------
      1       25           0.002792230   -0.005855648   -0.006188868
      2        6           0.003505974   -0.001516227    0.001080275
      3        6          -0.001657019    0.002427889    0.002235897
      4        6          -0.001909572   -0.000744855   -0.000041026
      5        7          -0.000383790    0.000431350   -0.001214523
      6        7           0.000198166   -0.000235800    0.000408834
      7        6           0.000172749    0.000037674    0.000091711
      8        6           0.000118969   -0.000032753   -0.000053789
      9        6          -0.000035223    0.000051473   -0.000066110
     10        6          -0.000269128   -0.000054603    0.000309843
     11        6           0.000265980    0.000264223   -0.001382192
     12        6          -0.000171698    0.000329532    0.000220889
     13        6           0.000069867   -0.000330201   -0.000122619
     14        6          -0.000014131   -0.000148789   -0.000049554
     15        6           0.000145558   -0.000016010   -0.000057669
     16        6          -0.000137636    0.000159253    0.000227392
     17        6          -0.000005994    0.000165512    0.000069930
     18        6           0.000084522   -0.000042594   -0.000621282
     19        6           0.000054155    0.000151174   -0.000196340
     20        6           0.000646066    0.000189867    0.000188503
     21        6           0.000115306   -0.000009054    0.000054276
     22        6          -0.000245795    0.000075886    0.000204035
     23        6           0.000032340   -0.000052136   -0.000035114
     24        6          -0.000045207    0.000071369    0.000134126
     25        6          -0.000047433    0.000026404    0.000162012
     26        6          -0.000011666   -0.000115607   -0.000073822
     27        6          -0.000039080   -0.000076514    0.000014434
     28        6          -0.000111715   -0.000034459    0.000218747
     29       16          -0.000082439   -0.000053624   -0.000215481
     30       16           0.000076207   -0.000279604    0.000027814
     31        1          -0.000001107   -0.000016997    0.000015792
     32        1           0.000031739   -0.000112524    0.000032670
     33        1          -0.000635234    0.000471059   -0.001738257
     34        1          -0.000070006    0.000015680    0.000163879
     35        1           0.000041492   -0.000049946    0.000041160
     36        1          -0.000022308    0.000004122   -0.000005101
     37        1          -0.000020343   -0.000028811   -0.000037543
     38        1           0.000007016   -0.000040655   -0.000012555
     39        1          -0.000032134    0.000024020    0.000036472
     40        1          -0.000027443    0.000020692    0.000022988
     41        1          -0.000014605   -0.000017413   -0.000012128
     42        1          -0.000013649    0.000015542    0.000020811
     43        1           0.000046796    0.000028573   -0.000076238
     44        8           0.000746988   -0.000867826   -0.000591306
     45        8           0.000793880    0.000853597    0.000033010
     46        8          -0.000649614    0.000309069   -0.000280884
     47        1          -0.000039374    0.000096811   -0.000060441
     48        7          -0.010993726    0.006773694    0.007693368
     49        6           0.003054051    0.001714466   -0.004208640
     50        1          -0.001307622   -0.000257977    0.000532702
     51        6          -0.000987699   -0.001495887    0.001973206
     52        6           0.002835915   -0.001304770    0.000111220
     53        6           0.000318667   -0.000924641    0.001269805
     54        1           0.000402833   -0.000264936    0.000301982
     55        6           0.001775265    0.001040969   -0.001282513
     56        6           0.000578568   -0.000293576    0.000292316
     57        6           0.000893356   -0.000287638    0.000305874
     58        1          -0.000169999    0.000162368   -0.000235155
     59        1           0.000157773   -0.000124865    0.000118889
     60        1           0.000189959   -0.000225326    0.000244290
 -------------------------------------------------------------------
 Cartesian Forces:  Max     0.010993726 RMS     0.001514658

 GradGradGradGradGradGradGradGradGradGradGradGradGradGradGradGradGradGrad
 Berny optimization.
 FormGI is forming the generalized inverse of G from B-inverse, IUseBI=4.
 Internal  Forces:  Max     0.007400330 RMS     0.001214889
 Search for a local minimum.
 Step number   1 out of a maximum of  356
 All quantities printed in internal units (Hartrees-Bohrs-Radians)
 Mixed Optimization -- RFO/linear search
 Second derivative matrix not updated -- first step.
 ITU=  0
     Eigenvalues ---    0.00230   0.00629   0.00704   0.00739   0.01315
     Eigenvalues ---    0.01428   0.01518   0.01570   0.01624   0.01688
     Eigenvalues ---    0.01698   0.01804   0.01865   0.01866   0.01890
     Eigenvalues ---    0.01917   0.01942   0.02008   0.02067   0.02117
     Eigenvalues ---    0.02129   0.02133   0.02146   0.02147   0.02151
     Eigenvalues ---    0.02157   0.02160   0.02163   0.02165   0.02170
     Eigenvalues ---    0.02173   0.02175   0.02178   0.02179   0.02182
     Eigenvalues ---    0.02188   0.02200   0.02203   0.02210   0.02215
     Eigenvalues ---    0.02253   0.02279   0.02337   0.02339   0.02372
     Eigenvalues ---    0.02396   0.02981   0.03546   0.03822   0.04407
     Eigenvalues ---    0.04888   0.05065   0.05082   0.05082   0.05121
     Eigenvalues ---    0.05121   0.05124   0.05124   0.06024   0.08325
     Eigenvalues ---    0.08489   0.08716   0.09177   0.09676   0.09914
     Eigenvalues ---    0.11965   0.12376   0.12959   0.15988   0.15994
     Eigenvalues ---    0.15995   0.15996   0.15997   0.15998   0.15998
     Eigenvalues ---    0.15998   0.15999   0.15999   0.15999   0.16000
     Eigenvalues ---    0.16000   0.16000   0.16000   0.16000   0.16000
     Eigenvalues ---    0.16000   0.16000   0.16095   0.16316   0.18655
     Eigenvalues ---    0.20943   0.21847   0.21958   0.22000   0.22000
     Eigenvalues ---    0.22045   0.22090   0.22128   0.22134   0.22402
     Eigenvalues ---    0.22514   0.22936   0.23347   0.23445   0.23452
     Eigenvalues ---    0.23484   0.23598   0.23648   0.23785   0.24201
     Eigenvalues ---    0.24893   0.24916   0.24941   0.25000   0.26708
     Eigenvalues ---    0.26817   0.27455   0.27923   0.32966   0.33469
     Eigenvalues ---    0.34589   0.34593   0.34594   0.34609   0.34614
     Eigenvalues ---    0.34614   0.34617   0.34652   0.34653   0.34671
     Eigenvalues ---    0.34678   0.34681   0.34683   0.34727   0.34802
     Eigenvalues ---    0.34807   0.34853   0.35249   0.35495   0.38413
     Eigenvalues ---    0.39694   0.39752   0.40798   0.41611   0.41625
     Eigenvalues ---    0.41740   0.41966   0.42181   0.43928   0.44009
     Eigenvalues ---    0.44301   0.44974   0.45533   0.45834   0.45855
     Eigenvalues ---    0.45923   0.46087   0.46131   0.46445   0.46528
     Eigenvalues ---    0.46600   0.46755   0.46865   0.47039   0.47228
     Eigenvalues ---    0.47271   0.54246   0.54356   0.55846   0.56911
     Eigenvalues ---    1.29174   1.39083   1.41230   1.41449
 RFO step:  Lambda=-6.64431794D-03 EMin= 2.30000000D-03
 Linear search not attempted -- first point.
 Maximum step size (   0.300) exceeded in Quadratic search.
    -- Step size scaled by   0.705
 Iteration  1 RMS(Cart)=  0.19491250 RMS(Int)=  0.00845640
 Iteration  2 RMS(Cart)=  0.13626195 RMS(Int)=  0.00250521
 Iteration  3 RMS(Cart)=  0.00576893 RMS(Int)=  0.00057872
 Iteration  4 RMS(Cart)=  0.00002196 RMS(Int)=  0.00057871
 Iteration  5 RMS(Cart)=  0.00000012 RMS(Int)=  0.00057871
 Variable       Old X    -DE/DX   Delta X   Delta X   Delta X     New X
                                 (Linear)    (Quad)   (Total)
    R1        3.46723   0.00093   0.00000   0.00290   0.00290   3.47013
    R2        3.44735  -0.00037   0.00000  -0.00114  -0.00114   3.44621
    R3        3.46387  -0.00041   0.00000  -0.00128  -0.00128   3.46259
    R4        4.06965  -0.00225   0.00000  -0.01720  -0.01708   4.05257
    R5        4.08760   0.00003   0.00000   0.00171   0.00184   4.08944
    R6        3.84655  -0.00017   0.00000  -0.00093  -0.00085   3.84569
    R7        2.15524  -0.00014   0.00000  -0.00007  -0.00007   2.15517
    R8        2.16128   0.00058   0.00000   0.00029   0.00029   2.16157
    R9        2.15580   0.00111   0.00000   0.00055   0.00055   2.15635
   R10        2.54124  -0.00013   0.00000  -0.00023  -0.00018   2.54106
   R11        2.51963   0.00071   0.00000   0.00050   0.00053   2.52017
   R12        2.52340   0.00014   0.00000   0.00021   0.00028   2.52368
   R13        2.54141   0.00014   0.00000   0.00027   0.00029   2.54171
   R14        2.62279  -0.00045   0.00000  -0.00039  -0.00045   2.62234
   R15        2.06121  -0.00005   0.00000  -0.00010  -0.00010   2.06111
   R16        2.63413  -0.00009   0.00000   0.00023   0.00013   2.63426
   R17        2.05990   0.00001   0.00000   0.00002   0.00002   2.05991
   R18        2.63391   0.00020   0.00000   0.00038   0.00036   2.63427
   R19        2.06347  -0.00002   0.00000  -0.00004  -0.00004   2.06343
   R20        2.63410   0.00103   0.00000   0.00080   0.00098   2.63509
   R21        2.81475  -0.00021   0.00000  -0.00040  -0.00040   2.81435
   R22        2.04879   0.00166   0.00000   0.00324   0.00324   2.05203
   R23        2.63352  -0.00011   0.00000   0.00023   0.00037   2.63388
   R24        2.05273  -0.00003   0.00000  -0.00006  -0.00006   2.05267
   R25        2.63210  -0.00003   0.00000  -0.00015  -0.00018   2.63192
   R26        2.81603  -0.00008   0.00000  -0.00025  -0.00024   2.81579
   R27        2.62318  -0.00013   0.00000  -0.00017  -0.00018   2.62301
   R28        2.05914   0.00005   0.00000   0.00009   0.00009   2.05923
   R29        2.63256   0.00002   0.00000  -0.00008  -0.00012   2.63244
   R30        2.05998  -0.00001   0.00000  -0.00003  -0.00003   2.05995
   R31        2.06300   0.00003   0.00000   0.00006   0.00006   2.06306
   R32        2.66005  -0.00042   0.00000  -0.00058  -0.00074   2.65930
   R33        2.64043   0.00017   0.00000   0.00017   0.00017   2.64060
   R34        2.66262  -0.00038   0.00000  -0.00096  -0.00114   2.66147
   R35        2.64453   0.00013   0.00000   0.00015   0.00015   2.64468
   R36        2.65023  -0.00027   0.00000  -0.00058  -0.00062   2.64961
   R37        3.36442   0.00016   0.00000  -0.00033  -0.00049   3.36392
   R38        2.64699   0.00028   0.00000   0.00027   0.00023   2.64722
   R39        3.36624  -0.00076   0.00000  -0.00169  -0.00184   3.36440
   R40        2.63999   0.00014   0.00000   0.00026   0.00026   2.64025
   R41        3.35596   0.00003   0.00000   0.00047   0.00050   3.35646
   R42        2.64017   0.00006   0.00000   0.00016   0.00016   2.64034
   R43        3.35510  -0.00019   0.00000  -0.00006  -0.00004   3.35506
   R44        2.63295  -0.00001   0.00000   0.00010   0.00014   2.63309
   R45        2.06315   0.00003   0.00000   0.00007   0.00007   2.06322
   R46        2.63066   0.00010   0.00000   0.00033   0.00037   2.63103
   R47        2.06340   0.00001   0.00000   0.00002   0.00002   2.06342
   R48        2.62904   0.00016   0.00000   0.00047   0.00051   2.62955
   R49        2.06195   0.00003   0.00000   0.00007   0.00007   2.06202
   R50        2.63018  -0.00000   0.00000   0.00020   0.00024   2.63041
   R51        2.06212   0.00002   0.00000   0.00005   0.00005   2.06216
   R52        2.06305   0.00001   0.00000   0.00002   0.00002   2.06308
   R53        2.06305  -0.00002   0.00000  -0.00004  -0.00004   2.06302
   R54        2.18811  -0.00693   0.00000  -0.00376  -0.00378   2.18433
   R55        2.71968  -0.00704   0.00000  -0.01228  -0.01235   2.70733
   R56        2.06201   0.00073   0.00000   0.00145   0.00145   2.06346
   R57        2.65054   0.00187   0.00000   0.00294   0.00299   2.65352
   R58        2.62997  -0.00252   0.00000  -0.00374  -0.00374   2.62622
   R59        2.65120   0.00027   0.00000   0.00051   0.00055   2.65175
   R60        2.06243  -0.00022   0.00000  -0.00044  -0.00044   2.06199
   R61        2.63708   0.00079   0.00000   0.00108   0.00104   2.63812
   R62        2.62958  -0.00151   0.00000  -0.00221  -0.00221   2.62737
   R63        2.06193  -0.00004   0.00000  -0.00008  -0.00008   2.06184
   R64        2.63745   0.00107   0.00000   0.00154   0.00149   2.63894
   R65        2.06340  -0.00023   0.00000  -0.00047  -0.00047   2.06293
   R66        2.06242  -0.00030   0.00000  -0.00060  -0.00060   2.06181
    A1        1.57967  -0.00059   0.00000   0.00994   0.00996   1.58963
    A2        1.62353   0.00015   0.00000   0.00047  -0.00141   1.62212
    A3        1.57319   0.00025   0.00000   0.00249   0.00404   1.57722
    A4        1.50440   0.00670   0.00000   0.03509   0.03494   1.53934
    A5        1.56306   0.00006   0.00000  -0.00248  -0.00242   1.56064
    A6        1.60633   0.00119   0.00000  -0.00052  -0.00060   1.60573
    A7        1.61072   0.00013   0.00000   0.00077   0.00062   1.61133
    A8        1.58164  -0.00065   0.00000  -0.00374  -0.00219   1.57945
    A9        1.56137  -0.00133   0.00000  -0.00795  -0.00823   1.55314
   A10        1.50347   0.00023   0.00000   0.00055  -0.00064   1.50283
   A11        1.59396  -0.00724   0.00000  -0.04396  -0.04378   1.55018
   A12        1.55130   0.00081   0.00000   0.00728   0.00755   1.55885
[...]
                 (A) (A) (A) (A) (A) (A) (A) (A) (A) (A) (A) (A)
                 (A) (A) (A) (A) (A) (A) (A) (A) (A) (A) (A) (A)
                 (A) (A) (A) (A) (A) (A) (A) (A) (A) (A) (A) (A)
                 (A) (A) (A) (A) (A) (A) (A) (A) (A) (A) (A) (A)
                 (A) (A) (A) (A) (A) (A) (A) (A) (A) (A) (A) (A)
                 (A) (A) (A) (A) (A) (A) (A) (A) (A) (A) (A) (A)
                 (A) (A) (A) (A) (A) (A) (A) (A) (A) (A) (A) (A)
                 (A) (A) (A) (A) (A) (A) (A) (A) (A) (A) (A) (A)
                 (A) (A) (A) (A) (A) (A) (A) (A) (A) (A) (A) (A)
                 (A) (A) (A) (A) (A) (A) (A) (A) (A) (A) (A) (A)
                 (A) (A) (A) (A) (A) (A) (A) (A) (A) (A) (A) (A)
                 (A) (A) (A) (A) (A) (A) (A) (A) (A) (A) (A) (A)
                 (A) (A) (A) (A) (A) (A) (A) (A) (A) (A) (A) (A)
                 (A) (A) (A) (A) (A) (A) (A) (A) (A) (A) (A) (A)
                 (A) (A) (A) (A) (A) (A) (A) (A) (A) (A) (A) (A)
                 (A) (A) (A) (A) (A) (A) (A) (A) (A) (A) (A) (A)
                 (A) (A) (A) (A) (A) (A) (A) (A) (A) (A) (A) (A)
                 (A) (A) (A) (A) (A) (A) (A) (A) (A) (A) (A) (A)
                 (A) (A) (A) (A) (A) (A) (A) (A) (A) (A) (A) (A)
 The electronic state is 1-A.
 Alpha  occ. eigenvalues -- -235.72193 -89.05376 -89.05040 -27.49203 -23.54995
 Alpha  occ. eigenvalues --  -23.54777 -23.54747 -19.36251 -19.36177 -19.36096
 Alpha  occ. eigenvalues --  -14.52180 -14.52176 -14.52059 -10.43720 -10.43697
 Alpha  occ. eigenvalues --  -10.43623 -10.41374 -10.38180 -10.38132 -10.38085
 Alpha  occ. eigenvalues --  -10.38015 -10.37998 -10.37223 -10.37162 -10.36898
 Alpha  occ. eigenvalues --  -10.36785 -10.35918 -10.35916 -10.35806 -10.35733
 Alpha  occ. eigenvalues --  -10.35710 -10.35671 -10.35632 -10.35430 -10.34675
 Alpha  occ. eigenvalues --  -10.34585 -10.34455 -10.34171 -10.34064 -10.34030
 Alpha  occ. eigenvalues --  -10.33896 -10.33821 -10.33705 -10.33577 -10.33461
 Alpha  occ. eigenvalues --   -8.10435  -8.10158  -6.05898  -6.05617  -6.05509
 Alpha  occ. eigenvalues --   -6.05226  -6.04871  -6.04595  -3.28432  -2.13987
 Alpha  occ. eigenvalues --   -2.13463  -2.13441  -1.25239  -1.25137  -1.25084
 Alpha  occ. eigenvalues --   -1.10009  -1.09520  -1.07548  -1.02529  -1.00201
 Alpha  occ. eigenvalues --   -1.00077  -0.96093  -0.94933  -0.93442  -0.92625
 Alpha  occ. eigenvalues --   -0.91297  -0.90547  -0.89851  -0.88454  -0.87717
 Alpha  occ. eigenvalues --   -0.86839  -0.84199  -0.80127  -0.77571  -0.77430
 Alpha  occ. eigenvalues --   -0.77273  -0.76863  -0.76441  -0.74059  -0.73746
 Alpha  occ. eigenvalues --   -0.71785  -0.71286  -0.70187  -0.68411  -0.68069
 Alpha  occ. eigenvalues --   -0.66932  -0.66823  -0.66199  -0.66084  -0.63970
 Alpha  occ. eigenvalues --   -0.62930  -0.62527  -0.62084  -0.61528  -0.60597
 Alpha  occ. eigenvalues --   -0.59776  -0.59514  -0.59296  -0.59041  -0.58651
 Alpha  occ. eigenvalues --   -0.58339  -0.58237  -0.58155  -0.57344  -0.57075
 Alpha  occ. eigenvalues --   -0.56435  -0.56269  -0.56246  -0.56087  -0.55370
 Alpha  occ. eigenvalues --   -0.55255  -0.54937  -0.54850  -0.54177  -0.53916
 Alpha  occ. eigenvalues --   -0.53798  -0.53421  -0.53310  -0.53041  -0.52614
 Alpha  occ. eigenvalues --   -0.52272  -0.51047  -0.50520  -0.50047  -0.49687
 Alpha  occ. eigenvalues --   -0.49476  -0.48666  -0.48295  -0.47824  -0.46696
 Alpha  occ. eigenvalues --   -0.46468  -0.45991  -0.45632  -0.45202  -0.43650
 Alpha  occ. eigenvalues --   -0.43088  -0.42002  -0.41277  -0.40896  -0.39802
 Alpha  occ. eigenvalues --   -0.38790  -0.38075  -0.37696  -0.37491  -0.36760
 Alpha  occ. eigenvalues --   -0.36117  -0.34480  -0.34008  -0.33568  -0.32725
 Alpha  occ. eigenvalues --   -0.31649
 Alpha virt. eigenvalues --   -0.02705  -0.01464  -0.01176  -0.00236   0.00771
 Alpha virt. eigenvalues --    0.01250   0.01639   0.01921   0.02211   0.02294
 Alpha virt. eigenvalues --    0.02526   0.03276   0.03651   0.04531   0.05374
 Alpha virt. eigenvalues --    0.05739   0.07266   0.07974   0.08330   0.08869
 Alpha virt. eigenvalues --    0.09427   0.09967   0.10971   0.11738   0.12685
 Alpha virt. eigenvalues --    0.14202   0.14240   0.14807   0.15182   0.15318
 Alpha virt. eigenvalues --    0.16003   0.16835   0.17121   0.17589   0.18264
 Alpha virt. eigenvalues --    0.18490   0.18669   0.19116   0.19405   0.19753
 Alpha virt. eigenvalues --    0.20269   0.20587   0.21317   0.21576   0.21938
 Alpha virt. eigenvalues --    0.22010   0.22788   0.23430   0.23627   0.25283
 Alpha virt. eigenvalues --    0.25851   0.26629   0.27226   0.28284   0.29185
 Alpha virt. eigenvalues --    0.29563   0.29836   0.30184   0.30414   0.30674
 Alpha virt. eigenvalues --    0.30932   0.31785   0.32233   0.32928   0.33184
 Alpha virt. eigenvalues --    0.33472   0.34173   0.34342   0.34570   0.35229
 Alpha virt. eigenvalues --    0.35511   0.35697   0.36453   0.36668   0.37255
 Alpha virt. eigenvalues --    0.38096   0.38182   0.38421   0.39007   0.39263
 Alpha virt. eigenvalues --    0.39569   0.40081   0.41598   0.41667   0.42271
 Alpha virt. eigenvalues --    0.42540   0.43699   0.44210   0.44886   0.45464
 Alpha virt. eigenvalues --    0.45691   0.46197   0.46409   0.46858   0.47318
 Alpha virt. eigenvalues --    0.47612   0.48080   0.48186   0.48947   0.49275
 Alpha virt. eigenvalues --    0.49531   0.49939   0.50561   0.50906   0.51112
 Alpha virt. eigenvalues --    0.51519   0.51888   0.52425   0.52827   0.52919
 Alpha virt. eigenvalues --    0.52987   0.53756   0.54008   0.54441   0.54647
 Alpha virt. eigenvalues --    0.54818   0.55301   0.55657   0.55714   0.56257
 Alpha virt. eigenvalues --    0.56560   0.57168   0.57586   0.58450   0.58648
 Alpha virt. eigenvalues --    0.58950   0.59685   0.60057   0.60432   0.60622
 Alpha virt. eigenvalues --    0.61241   0.61731   0.62072   0.62763   0.63329
 Alpha virt. eigenvalues --    0.63472   0.63759   0.64052   0.64476   0.64515
 Alpha virt. eigenvalues --    0.65335   0.65417   0.66096   0.66659   0.67414
 Alpha virt. eigenvalues --    0.67663   0.68575   0.68725   0.69269   0.69579
 Alpha virt. eigenvalues --    0.69856   0.70094   0.70772   0.70903   0.71225
 Alpha virt. eigenvalues --    0.71336   0.71588   0.71683   0.71966   0.72261
 Alpha virt. eigenvalues --    0.72612   0.72893   0.73130   0.73734   0.73802
 Alpha virt. eigenvalues --    0.74328   0.74424   0.74726   0.75042   0.75368
 Alpha virt. eigenvalues --    0.75681   0.76004   0.76234   0.76722   0.77173
 Alpha virt. eigenvalues --    0.77553   0.77751   0.77765   0.78260   0.78701
 Alpha virt. eigenvalues --    0.78975   0.79265   0.79771   0.80192   0.80598
 Alpha virt. eigenvalues --    0.81013   0.81383   0.81525   0.82068   0.82246
 Alpha virt. eigenvalues --    0.82500   0.83174   0.83445   0.83661   0.84080
 Alpha virt. eigenvalues --    0.84356   0.84382   0.84816   0.85265   0.85773
 Alpha virt. eigenvalues --    0.86316   0.86950   0.87069   0.87655   0.88302
 Alpha virt. eigenvalues --    0.89009   0.89171   0.89308   0.89650   0.90281
 Alpha virt. eigenvalues --    0.91083   0.91322   0.91804   0.92849   0.93899
 Alpha virt. eigenvalues --    0.94461   0.94948   0.95351   0.95501   0.96217
 Alpha virt. eigenvalues --    0.96491   0.97810   0.98263   1.00211   1.01021
 Alpha virt. eigenvalues --    1.01681   1.02253   1.03269   1.03969   1.04807
 Alpha virt. eigenvalues --    1.05565   1.06202   1.06934   1.07844   1.08802
 Alpha virt. eigenvalues --    1.09350   1.10010   1.10072   1.11139   1.11437
 Alpha virt. eigenvalues --    1.12133   1.12481   1.13148   1.13697   1.14211
 Alpha virt. eigenvalues --    1.15149   1.16776   1.17732   1.18291   1.19065
 Alpha virt. eigenvalues --    1.19825   1.20313   1.21507   1.21896   1.22083
 Alpha virt. eigenvalues --    1.23260   1.24009   1.24453   1.24711   1.25856
 Alpha virt. eigenvalues --    1.26236   1.26513   1.26819   1.27774   1.28033
 Alpha virt. eigenvalues --    1.28142   1.28429   1.28660   1.29620   1.29791
 Alpha virt. eigenvalues --    1.30359   1.30779   1.30986   1.31848   1.31945
 Alpha virt. eigenvalues --    1.33103   1.33262   1.33519   1.33928   1.34415
 Alpha virt. eigenvalues --    1.34613   1.35043   1.35202   1.36001   1.36494
 Alpha virt. eigenvalues --    1.37237   1.37572   1.38472   1.38932   1.40117
 Alpha virt. eigenvalues --    1.40649   1.42113   1.42825   1.43978   1.45511
 Alpha virt. eigenvalues --    1.45720   1.48299   1.48857   1.49504   1.50361
 Alpha virt. eigenvalues --    1.53907   1.55531   1.56193   1.56702   1.57038
 Alpha virt. eigenvalues --    1.58122   1.59328   1.60523   1.61331   1.62858
 Alpha virt. eigenvalues --    1.63545   1.63971   1.64706   1.65638   1.66474
 Alpha virt. eigenvalues --    1.67417   1.68740   1.69517   1.70119   1.70662
 Alpha virt. eigenvalues --    1.71320   1.71457   1.72042   1.72421   1.72587
 Alpha virt. eigenvalues --    1.72733   1.73948   1.74316   1.74646   1.75203
 Alpha virt. eigenvalues --    1.75797   1.76017   1.76411   1.76514   1.77261
 Alpha virt. eigenvalues --    1.77697   1.77929   1.78474   1.78857   1.79425
 Alpha virt. eigenvalues --    1.79892   1.80209   1.80489   1.80950   1.81387
 Alpha virt. eigenvalues --    1.81459   1.81786   1.82005   1.82453   1.82694
 Alpha virt. eigenvalues --    1.83103   1.84306   1.84628   1.85171   1.85477
 Alpha virt. eigenvalues --    1.85966   1.86762   1.87242   1.87628   1.87948
 Alpha virt. eigenvalues --    1.88906   1.89146   1.89645   1.89778   1.90581
 Alpha virt. eigenvalues --    1.91107   1.91290   1.92226   1.92447   1.93426
 Alpha virt. eigenvalues --    1.94217   1.95348   1.95927   1.96321   1.97183
 Alpha virt. eigenvalues --    1.98124   1.98454   1.98756   1.99850   2.00796
 Alpha virt. eigenvalues --    2.00905   2.01043   2.01562   2.02286   2.02551
 Alpha virt. eigenvalues --    2.03007   2.03755   2.03856   2.04306   2.04320
 Alpha virt. eigenvalues --    2.05512   2.06610   2.07093   2.07948   2.08551
 Alpha virt. eigenvalues --    2.08756   2.09682   2.09918   2.10126   2.10997
 Alpha virt. eigenvalues --    2.12085   2.13010   2.14712   2.14868   2.16278
 Alpha virt. eigenvalues --    2.17101   2.18037   2.18305   2.18690   2.19925
 Alpha virt. eigenvalues --    2.20056   2.20245   2.21538   2.21876   2.23461
 Alpha virt. eigenvalues --    2.24268   2.24816   2.24979   2.26051   2.27178
 Alpha virt. eigenvalues --    2.27734   2.28894   2.29057   2.30056   2.30294
 Alpha virt. eigenvalues --    2.31196   2.31675   2.31899   2.33318   2.33736
 Alpha virt. eigenvalues --    2.34357   2.35080   2.35661   2.35800   2.36207
 Alpha virt. eigenvalues --    2.36607   2.37311   2.37684   2.38590   2.39036
 Alpha virt. eigenvalues --    2.39204   2.40504   2.40913   2.41287   2.42170
 Alpha virt. eigenvalues --    2.44019   2.45459   2.46111   2.46337   2.47630
 Alpha virt. eigenvalues --    2.48304   2.49649   2.52171   2.52574   2.54747
 Alpha virt. eigenvalues --    2.55167   2.56809   2.57754   2.59024   2.59125
 Alpha virt. eigenvalues --    2.61243   2.64982   2.65779   2.65806   2.66519
 Alpha virt. eigenvalues --    2.67496   2.67776   2.67921   2.68009   2.68099
 Alpha virt. eigenvalues --    2.68367   2.68605   2.68721   2.68870   2.69157
 Alpha virt. eigenvalues --    2.69286   2.70769   2.71024   2.75052   2.75656
 Alpha virt. eigenvalues --    2.75726   2.78238   2.78795   2.79091   2.79576
 Alpha virt. eigenvalues --    2.80805   2.81346   2.83204   2.83371   2.83861
 Alpha virt. eigenvalues --    2.84542   2.84887   2.85991   2.86326   2.87550
 Alpha virt. eigenvalues --    2.90457   2.92031   2.92167   2.93490   2.95029
 Alpha virt. eigenvalues --    2.96345   2.97983   2.98724   3.01344   3.02458
 Alpha virt. eigenvalues --    3.03237   3.03394   3.04442   3.05103   3.06106
 Alpha virt. eigenvalues --    3.06952   3.07670   3.08164   3.14134   3.14783
 Alpha virt. eigenvalues --    3.16191   3.18523   3.19971   3.20659   3.20682
 Alpha virt. eigenvalues --    3.21089   3.22114   3.22534   3.24021   3.27845
 Alpha virt. eigenvalues --    3.28416   3.31270   3.35539   3.37050   3.39054
 Alpha virt. eigenvalues --    3.43595   3.47332   3.50610   3.50929   3.53594
 Alpha virt. eigenvalues --    3.56272   3.57372   3.59084   3.59911   3.60154
 Alpha virt. eigenvalues --    3.61302   3.62125   3.64234   3.67833   3.69035
 Alpha virt. eigenvalues --    3.69041   3.76438   3.90103   3.90489   3.95597
 Alpha virt. eigenvalues --    4.02198   4.05252
          Condensed to atoms (all electrons):
 Mulliken charges:
               1
     1  Mn  -0.717956
     2  C    0.369854
     3  C    0.291850
     4  C    0.362599
     5  N   -0.213398
     6  N   -0.213193
     7  C    0.102854
     8  C   -0.038386
     9  C    0.054458
    10  C   -0.069500
    11  C    0.182366
    12  C    0.162529
    13  C   -0.096617
    14  C    0.106542
    15  C   -0.037442
    16  C    0.084956
    17  C   -0.035638
    18  C    0.011725
    19  C   -0.078730
    20  C   -0.063061
    21  C   -0.095996
    22  C   -0.098820
    23  C    0.001033
    24  C   -0.015987
    25  C   -0.014915
    26  C   -0.015361
    27  C    0.002993
    28  C    0.005330
    29  S    0.111948
    30  S    0.105315
    31  H    0.068705
    32  H    0.062251
    33  H   -0.019330
    34  H    0.026198
    35  H    0.076627
    36  H    0.070213
    37  H    0.062290
    38  H    0.042862
    39  H    0.042645
    40  H    0.054231
    41  H    0.056326
    42  H    0.046167
    43  H    0.044681
    44  O   -0.045105
    45  O   -0.043645
    46  O   -0.042048
    47  H    0.075982
    48  N    0.083608
    49  C    0.002403
    50  H    0.025339
    51  C    0.030697
    52  C   -0.114876
    53  C    0.000536
    54  H    0.043639
    55  C    0.029899
    56  C    0.004096
    57  C   -0.018276
    58  H    0.059299
    59  H    0.061729
    60  H    0.061503
 Sum of Mulliken charges =   1.00000
 Mulliken charges with hydrogens summed into heavy atoms:
               1
     1  Mn  -0.717956
     2  C    0.369854
     3  C    0.291850
     4  C    0.362599
     5  N   -0.213398
     6  N   -0.213193
     7  C    0.178836
     8  C    0.030319
     9  C    0.116709
    10  C   -0.069500
    11  C    0.163036
    12  C    0.188727
    13  C   -0.096617
    14  C    0.183170
    15  C    0.032771
    16  C    0.147246
    17  C   -0.035638
    18  C    0.011725
    19  C   -0.078730
    20  C   -0.063061
    21  C   -0.095996
    22  C   -0.098820
    23  C    0.043895
    24  C    0.026658
    25  C    0.039316
    26  C    0.040965
    27  C    0.049160
    28  C    0.050011
    29  S    0.111948
    30  S    0.105315
    44  O   -0.045105
    45  O   -0.043645
    46  O   -0.042048
    48  N    0.083608
    49  C    0.002403
    51  C    0.056037
    52  C   -0.114876
    53  C    0.044174
    55  C    0.089198
    56  C    0.065825
    57  C    0.043226
         Mulliken charges condensed to fragments:
      1      0.730404
      2      0.269596
 Electronic spatial extent (au):  <R**2>=          18358.1075
 Charge=              1.0000 electrons
 Dipole moment (field-independent basis, Debye):
    X=             -1.1232    Y=              2.1043    Z=             -0.4694  Tot=              2.4311
 Quadrupole moment (field-independent basis, Debye-Ang):
   XX=           -218.2678   YY=           -198.8377   ZZ=           -220.6058
   XY=            -15.6361   XZ=             26.1539   YZ=              2.7034
 Traceless Quadrupole moment (field-independent basis, Debye-Ang):
   XX=             -5.6974   YY=             13.7327   ZZ=             -8.0353
   XY=            -15.6361   XZ=             26.1539   YZ=              2.7034
 Octapole moment (field-independent basis, Debye-Ang**2):
  XXX=             19.3546  YYY=            -21.4329  ZZZ=             14.0932  XYY=             -1.9154
  XXY=             39.9391  XXZ=            -27.5752  XZZ=             35.7744  YZZ=             83.3688
  YYZ=            -24.7840  XYZ=            -13.3964
 Hexadecapole moment (field-independent basis, Debye-Ang**3):
 XXXX=         -12409.6867 YYYY=          -5805.0506 ZZZZ=          -4689.6714 XXXY=           -211.2387
 XXXZ=            298.7211 YYYX=           -321.8724 YYYZ=           -174.3194 ZZZX=            229.9050
 ZZZY=             69.5729 XXYY=          -2953.3491 XXZZ=          -2857.7286 YYZZ=          -1514.4515
 XXYZ=             66.0201 YYXZ=            213.1331 ZZXY=             41.2847
 N-N= 5.807046960708D+03 E-N=-1.996640238828D+04  KE= 3.546180762320D+03
 1\1\GINC-C401-061\FOpt\RwB97XD\Gen\C32H19Mn1N3O3S2(1+)\DMCINTOS\10-Oct
 -2022\0\\# wB97XD Gen Opt SCRF=(Solvent=TetraHydroFuran)\\BenzoNitrile
  Geometry Optimization\\1,1\Mn,3.2873555705,0.056902206,-0.4624056075\
 C,4.096875047,-0.5996552706,-1.9726562495\C,4.6500361013,-0.5758671212
 ,0.5708100489\C,4.1596408466,1.6651048047,-0.5760850386\N,2.1698011975
 ,0.7268053746,1.2570845926\N,2.1512882385,-1.7655274243,-0.248122133\C
 ,2.7563738434,1.1586064655,2.3870877192\C,2.0340859038,1.6828737971,3.
 4501966487\C,0.6485247405,1.7931854656,3.3489249174\C,0.0249236716,1.3
 41907303,2.1860632237\C,0.8392502645,0.8033568132,1.1908131023\C,0.897
 4304274,-1.8328718395,-0.7055626016\C,-0.0146026126,-2.8244749734,-0.3
 522066951\C,2.5765364855,-2.7842016978,0.5179791195\C,1.7673244974,-3.
 8596494538,0.8604165263\C,0.4394079537,-3.8745568751,0.4433137134\C,-1
 .4345457538,-2.6349034184,-0.7642148586\C,-1.4263927582,1.5225912566,1
 .9004959755\C,-2.2705017262,0.4631338644,1.5138089437\C,-2.2803350387,
 -1.8419544336,0.0339813917\C,-3.5878565773,0.7285278764,1.114405848\C,
 -3.5857698867,-1.5621381088,-0.390360231\C,-1.9268686896,-3.1702248749
 ,-1.9564463864\C,-1.9515629071,2.8196925423,1.9413481752\C,-3.26702713
 ,3.0745249534,1.564146188\C,-3.2291123666,-2.8957161895,-2.3704040524\
 C,-4.0524009659,-2.077001329,-1.602640523\C,-4.079715016,2.0354489837,
 1.1234508159\S,-1.7078434107,-1.2241868717,1.6035840919\S,-4.674296945
 4,-0.5883878948,0.6209148836\H,2.561274146,2.015580311,4.3444018939\H,
 0.0623569299,2.2251857627,4.162679381\H,0.3673428158,0.4360096838,0.28
 54167045\H,0.5721443834,-1.0392519288,-1.3738382186\H,3.6023736352,-2.
 7438911089,0.8825436219\H,2.1745178362,-4.6597331519,1.4786950666\H,-0
 .2359988049,-4.6775142552,0.7446329441\H,-1.2740453653,-3.792397037,-2
 .5716134986\H,-1.3030928377,3.6452840434,2.2416511421\H,-3.6529316147,
 4.0948564231,1.5875909711\H,-3.6007701646,-3.3095452094,-3.3091852128\
 H,-5.0634708817,-1.8382206272,-1.9381159744\H,-5.0999965003,2.23235154
 31,0.7888591271\O,5.5415771192,-0.9229786797,1.1977191832\O,4.69830203
 17,2.6687330627,-0.6439865576\O,4.5878134886,-1.0259804152,-2.90973591
 25\H,3.8440173009,1.0927770992,2.4410099782\N,1.7951805473,0.888290844
 2,-1.5687428926\C,0.8582026153,1.4083845421,-1.9999637035\H,-1.4828112
 076,0.3014070817,-1.4584483964\C,-1.5625019653,1.2549509687,-1.9844925
 952\C,-0.4091366684,1.9567765904,-2.3775095919\C,-2.8136354823,1.78628
 08775,-2.2705794272\H,-3.7109699414,1.2479146808,-1.9598252524\C,-0.50
 51460451,3.1773767379,-3.0599646348\C,-2.9135541548,3.0032935965,-2.94
 70705066\C,-1.7658137395,3.6928737682,-3.3428232241\H,0.397167489,3.71
 26080207,-3.3580644804\H,-3.898008554,3.4193267314,-3.1692367676\H,-1.
 8535494153,4.6422961145,-3.8730547152\\Version=ES64L-G16RevA.03\State=
 1-A\HF=-3566.1651495\RMSD=9.078e-09\RMSF=1.130e-06\Dipole=-0.3903641,0
 .8528651,-0.1871858\Quadrupole=-6.7002919,11.4063695,-4.7060776,-11.03
 27372,19.3722284,0.800988\PG=C01 [X(C32H19Mn1N3O3S2)]\\@


 IN SO FAR AS QUANTUM MECHANICS IS CORRECT, CHEMICAL 
 QUESTIONS ARE PROBLEMS IN APPLIED MATHEMATICS.

                    -- EYRING, WALTER, & KIMBALL, 1944
 Job cpu time:      22 days  5 hours 56 minutes 22.0 seconds.
 Elapsed time:       0 days 23 hours 16 minutes 49.6 seconds.
 File lengths (MBytes):  RWF=    671 Int=      0 D2E=      0 Chk=     43 Scr=      1
 Normal termination of Gaussian 16 at Mon Oct 10 10:35:06 2022.
