 Entering Gaussian System, Link 0=g16
 Initial command:
 /home1/apps/gaussian/16rA.03/g16/l1.exe "/tmp/Gau-58637.inp" -scrdir="/tmp/"
 Entering Link 1 = /home1/apps/gaussian/16rA.03/g16/l1.exe PID=     58639.
  
 Copyright (c) 1988,1990,1992,1993,1995,1998,2003,2009,2016,
            Gaussian, Inc.  All Rights Reserved.
  
 This is part of the Gaussian(R) 16 program.  It is based on
 the Gaussian(R) 09 system (copyright 2009, Gaussian, Inc.),
 the Gaussian(R) 03 system (copyright 2003, Gaussian, Inc.),
 the Gaussian(R) 98 system (copyright 1998, Gaussian, Inc.),
 the Gaussian(R) 94 system (copyright 1995, Gaussian, Inc.),
 the Gaussian 92(TM) system (copyright 1992, Gaussian, Inc.),
 the Gaussian 90(TM) system (copyright 1990, Gaussian, Inc.),
 the Gaussian 88(TM) system (copyright 1988, Gaussian, Inc.),
 the Gaussian 86(TM) system (copyright 1986, Carnegie Mellon
 University), and the Gaussian 82(TM) system (copyright 1983,
 Carnegie Mellon University). Gaussian is a federally registered
 trademark of Gaussian, Inc.
  
 This software contains proprietary and confidential information,
 including trade secrets, belonging to Gaussian, Inc.
  
 This software is provided under written license and may be
 used, copied, transmitted, or stored only in accord with that
 written license.
  
 The following legend is applicable only to US Government
 contracts under FAR:
  
                    RESTRICTED RIGHTS LEGEND
  
 Use, reproduction and disclosure by the US Government is
 subject to restrictions as set forth in subparagraphs (a)
 and (c) of the Commercial Computer Software - Restricted
 Rights clause in FAR 52.227-19.
  
 Gaussian, Inc.
 340 Quinnipiac St., Bldg. 40, Wallingford CT 06492
  
  
 ---------------------------------------------------------------
 Warning -- This program may not be used in any manner that
 competes with the business of Gaussian, Inc. or will provide
 assistance to any competitor of Gaussian, Inc.  The licensee
 of this program is prohibited from giving any competitor of
 Gaussian, Inc. access to this program.  By using this program,
 the user acknowledges that Gaussian, Inc. is engaged in the
 business of creating and licensing software in the field of
 computational chemistry and represents and warrants to the
 licensee that it is not a competitor of Gaussian, Inc. and that
 it will not use this program in any manner prohibited above.
 ---------------------------------------------------------------
  

 Cite this work as:
 Gaussian 16, Revision A.03,
 M. J. Frisch, G. W. Trucks, H. B. Schlegel, G. E. Scuseria, 
 M. A. Robb, J. R. Cheeseman, G. Scalmani, V. Barone, 
 G. A. Petersson, H. Nakatsuji, X. Li, M. Caricato, A. V. Marenich, 
 J. Bloino, B. G. Janesko, R. Gomperts, B. Mennucci, H. P. Hratchian, 
 J. V. Ortiz, A. F. Izmaylov, J. L. Sonnenberg, D. Williams-Young, 
 F. Ding, F. Lipparini, F. Egidi, J. Goings, B. Peng, A. Petrone, 
 T. Henderson, D. Ranasinghe, V. G. Zakrzewski, J. Gao, N. Rega, 
 G. Zheng, W. Liang, M. Hada, M. Ehara, K. Toyota, R. Fukuda, 
 J. Hasegawa, M. Ishida, T. Nakajima, Y. Honda, O. Kitao, H. Nakai, 
 T. Vreven, K. Throssell, J. A. Montgomery, Jr., J. E. Peralta, 
 F. Ogliaro, M. J. Bearpark, J. J. Heyd, E. N. Brothers, K. N. Kudin, 
 V. N. Staroverov, T. A. Keith, R. Kobayashi, J. Normand, 
 K. Raghavachari, A. P. Rendell, J. C. Burant, S. S. Iyengar, 
 J. Tomasi, M. Cossi, J. M. Millam, M. Klene, C. Adamo, R. Cammi, 
 J. W. Ochterski, R. L. Martin, K. Morokuma, O. Farkas, 
 J. B. Foresman, and D. J. Fox, Gaussian, Inc., Wallingford CT, 2016.
 
 ******************************************
 Gaussian 16:  ES64L-G16RevA.03 25-Dec-2016
                17-Feb-2023 
 ******************************************
 %Chk=checkpoint.chk
 %NProcShared=12
 Will use up to   12 processors via shared memory.
 -----------------------------------------------------
 #wB97XD Gen Opt=(QST3) SCRF=(Solvent=TetraHydroFuran)
 -----------------------------------------------------
 1/5=1,18=20,26=3,27=203,38=1/1,3;
 2/9=110,12=2,17=6,18=5,40=1/2;
 3/5=7,11=2,25=1,30=1,70=2201,71=1,72=20,74=-58/1,2,3;
 4//1;
 5/5=2,38=5,53=20/2;
 6/7=2,8=2,9=2,10=2,28=1/1;
 7//1,2,3,16;
 1/5=1,18=20,26=3,27=203/3(2);
 2/9=110/2;
 99//99;
 2/9=110/2;
 3/5=7,6=1,11=2,25=1,30=1,70=2205,71=1,72=20,74=-58,82=7/1,2,3;
 4/5=5,16=3,69=1/1;
 5/5=2,38=5,53=20/2;
 7//1,2,3,16;
 1/5=1,18=20,26=3,27=203/3(-5);
 2/9=110/2;
 6/7=2,8=2,9=2,10=2,19=2,28=1/1;
 99/9=1/99;
 ------------------------------------
 Anthracene Transition State Reactant
 ------------------------------------
 Symbolic Z-matrix:
 Charge =  0 Multiplicity = 1
 Mn                   -1.0194   -0.13282  -1.30041 
 C                    -1.95084   1.09527  -2.29845 
 O                    -2.50101   1.87539  -2.92239 
 C                    -1.94096  -1.55093  -2.01671 
 O                    -2.47772  -2.45176  -2.46467 
 C                     0.20025  -0.27236  -2.6431 
 N                     0.04927  -1.53221  -0.03083 
 C                     0.07866  -3.04556   1.8282 
 C                     1.46702  -3.1228    1.77993 
 C                     1.37634  -1.67638  -0.11513 
 H                    -0.49205  -3.5931    2.57846 
 H                     2.01871  -3.71611   2.51212 
 N                    -2.37065   0.02942   0.19031 
 C                    -3.16697   0.13023   1.0198 
 C                    -4.10539   0.2658    2.09209 
 C                    -3.6202    0.43566   3.39952 
 C                    -4.52704   0.57079   4.44399 
 C                    -5.48203   0.23058   1.82486 
 H                    -2.54534   0.46071   3.58681 
 H                    -5.82775   0.09615   0.79488 
 N                     0.05018   1.50245  -0.35369 
 C                     0.08073   3.37421   1.14383 
 C                     1.47006   3.42805   1.09346 
 H                    -0.49002   4.07266   1.75603 
 C                    -0.58809  -2.23239   0.92237 
 H                    -1.67251  -2.14107   0.96102 
 C                    -0.58735   2.39419   0.42298 
 H                    -1.67305   2.32336   0.46813 
 H                    -4.16287   0.70328   5.46409 
 O                     0.94147  -0.36186  -3.51126 
 C                     3.71034   0.05692   0.59661 
 C                     6.44285   0.00195   0.07986 
 C                     2.14993  -2.41932   0.78562 
 C                     3.63318  -2.42875   0.67238 
 C                     4.33237  -3.60918   0.65808 
 C                     5.74721  -3.62943   0.48325 
 C                     6.44286  -2.47015   0.28898 
 C                     5.76733  -1.20725   0.29051 
 C                     4.35206  -1.18133   0.52939 
 H                     3.79554  -4.55679   0.74485 
 H                     6.26618  -4.58974   0.47691 
 H                     7.52231  -2.48926   0.12265 
 C                     4.35394   1.25516   0.28141 
 C                     5.76945   1.23001   0.04342 
 C                     6.44775   2.46555  -0.21061 
 C                     5.75436   3.64152  -0.25402 
 C                     4.33929   3.65908  -0.08147 
 C                     3.63726   2.50702   0.16895 
 H                     7.52743   2.44868  -0.37582 
 H                     6.27529   4.58008  -0.45221 
 H                     3.80437   4.6056   -0.18931 
 C                     2.15352   2.52607   0.2752 
 H                     2.02229   4.15802   1.68899 
 C                     1.37923   1.61496  -0.45427 
 H                     1.87683   0.94259  -1.1522 
 H                     1.87309  -1.17143  -0.94303 
 C                    -5.89955   0.53687   4.18594 
 C                    -6.37363   0.36773   2.88435 
 H                    -7.44706   0.34214   2.68994 
 H                    -6.60706   0.64379   5.01079 
 Br                   -5.87537  -0.28615  -1.89241 
 H                     7.52454  -0.01473  -0.07653 
 H                     2.66679   0.08836   0.89635 
 
 Add virtual bond connecting atoms Br61       and H20        Dist= 5.13D+00.
 -----------------------------------
 Anthracene Transition State Product
 -----------------------------------
 Symbolic Z-matrix:
 Charge =  0 Multiplicity = 1
 Mn                   -1.44286   0.16026  -2.01412 
 C                    -2.20443   1.54882  -2.90891 
 O                    -2.68366   2.42731  -3.46349 
 C                    -2.21304  -1.07612  -3.10367 
 O                    -2.69804  -1.85971  -3.78172 
 C                    -0.01408   0.23546  -3.09485 
 N                    -0.60049  -1.44099  -0.81185 
 C                    -0.82342  -3.27125   0.71581 
 C                     0.55737  -3.36677   0.85296 
 C                     0.7252   -1.5913   -0.72767 
 H                    -1.48955  -3.94449   1.25661 
 H                     1.00241  -4.09964   1.52935 
 N                     0.0775   -0.17244   2.4041 
 C                    -1.05369  -0.19765   2.64732 
 C                    -2.45976  -0.23136   2.94445 
 C                    -3.12645  -1.4621    3.01383 
 C                    -4.49389  -1.48788   3.26678 
 C                    -3.15853   0.96659   3.1448 
 H                    -2.5722   -2.38909   2.86463 
 H                    -2.62937   1.91849   3.09601 
 N                    -0.59083   1.56154  -0.58857 
 C                    -0.80429   3.1413    1.19825 
 C                     0.5769    3.20654   1.34817 
 H                    -1.46646   3.7285    1.83564 
 C                    -1.3638   -2.28301  -0.09733 
 H                    -2.44255  -2.14076  -0.17604 
 C                    -1.34964   2.291     0.24463 
 H                    -2.42913   2.16919   0.14486 
 H                    -5.01736  -2.44419   3.31559 
 O                     0.86165   0.2873   -3.83871 
 C                     2.91235  -0.04746   0.58557 
 C                     5.69235  -0.04273   0.41158 
 C                     1.36924  -2.49754   0.12252 
 C                     2.85402  -2.5063    0.21569 
 C                     3.56205  -3.67493   0.08887 
 C                     4.98786  -3.68132   0.09599 
 C                     5.69088  -2.51399   0.19056 
 C                     5.00769  -1.26191   0.32192 
 C                     3.57322  -1.26107   0.38259 
 H                     3.02896  -4.61681  -0.06081 
 H                     5.51371  -4.63251  -0.00729 
 H                     6.783    -2.51728   0.16154 
 C                     3.58071   1.17889   0.56648 
 C                     5.01522   1.18024   0.5065 
 C                     5.70587   2.43375   0.56536 
 C                     5.00976   3.60611   0.64834 
 C                     3.58394   3.60941   0.64 
 C                     2.86897   2.43926   0.58848 
 H                     6.79801   2.43509   0.53708 
 H                     5.54131   4.55882   0.69009 
 H                     3.05653   4.56629   0.63458 
 C                     1.38429   2.45343   0.49431 
 H                     1.02578   3.82526   2.12808 
 C                     0.73572   1.68987  -0.48314 
 H                     1.34033   1.15471  -1.214 
 H                     1.33286  -0.9558   -1.37019 
 C                    -5.19354  -0.29487   3.45284 
 C                    -4.52569   0.92909   3.39758 
 H                    -5.07398   1.86057   3.54798 
 H                    -6.26798  -0.31941   3.64516 
 Br                   -3.72263   0.07153  -0.71897 
 H                     1.84487  -0.05936   0.78995 
 H                     6.78538  -0.04496   0.39399 
 
 Add virtual bond connecting atoms N7         and Mn1        Dist= 4.11D+00.
 Add virtual bond connecting atoms N21        and Mn1        Dist= 4.11D+00.
 Add virtual bond connecting atoms H11        and H19        Dist= 4.70D+00.
 Add virtual bond connecting atoms H24        and H20        Dist= 4.71D+00.
 Add virtual bond connecting atoms H62        and N13        Dist= 4.53D+00.
 -----------------------------------------
 Anthracene Transition State Initial Guess
 -----------------------------------------
 Symbolic Z-matrix:
 Charge =  0 Multiplicity = 1
 Mn                   -1.14995  -0.16652  -1.93164 
 C                    -1.90923   1.10406  -3.0156 
 O                    -2.21972   1.94165  -3.73354 
 C                    -1.87378  -1.60328  -2.81742 
 O                    -2.14081  -2.54795  -3.41064 
 C                     0.19073  -0.23544  -3.08625 
 N                    -0.18316  -1.72045  -0.66114 
 C                    -0.42287  -3.4232    1.00507 
 C                     0.94262  -3.37575   1.27872 
 C                     1.13685  -1.75425  -0.46053 
 H                    -1.0864   -4.09535   1.55442 
 H                     1.37119  -3.99752   2.06953 
 N                    -2.17689   0.0139    0.06794 
 C                    -2.63948   0.15039   1.11798 
 C                    -3.25256   0.33028   2.40953 
 C                    -2.47697   0.69851   3.5123 
 C                    -3.09029   0.88447   4.75368 
 C                    -4.63072   0.14111   2.54477 
 H                    -1.40605   0.84183   3.38728 
 H                    -5.2156   -0.14731   1.67066 
 N                    -0.18502   1.56344  -0.91384 
 C                    -0.4114    3.48331   0.49833 
 C                     0.95746   3.4868    0.75209 
 H                    -1.07225   4.21906   0.95781 
 C                    -0.94682  -2.57369   0.03996 
 H                    -2.01917  -2.56358  -0.17118 
 C                    -0.94307   2.50148  -0.32857 
 H                    -2.01801   2.44957  -0.51614 
 H                    -2.4962    1.17683   5.61876 
 O                     1.04024  -0.29001  -3.86647 
 C                     3.26788   0.0411    0.70594 
 C                     6.05422   0.04571   0.7901 
 C                     1.7629   -2.52711   0.52764 
 C                     3.23914  -2.46011   0.73641 
 C                     3.96625  -3.6184    0.85678 
 C                     5.38833  -3.60177   0.99564 
 C                     6.07515  -2.42254   0.97054 
 C                     5.37373  -1.17836   0.8382 
 C                     3.93692  -1.18645   0.76643 
 H                     3.45269  -4.5833    0.81086 
 H                     5.92313  -4.55036   1.09224 
 H                     7.16782  -2.4043    1.0434 
 C                     3.94149   1.25919   0.55638 
 C                     5.37835   1.2609    0.62476 
 C                     6.08384   2.50797   0.5354 
 C                     5.40071   3.67561   0.36077 
 C                     3.97763   3.6719    0.2345 
 C                     3.24762   2.51119   0.3176 
 H                     7.17687   2.50085   0.60345 
 H                     5.93901   4.62533   0.28868 
 H                     3.46497   4.6158    0.03028 
 C                     1.77015   2.54427   0.11729 
 H                     1.39416   4.21445   1.44341 
 C                     1.13589   1.63338  -0.74057 
 H                     1.7381    0.93011  -1.31558 
 H                     1.74749  -1.13306  -1.11875 
 C                    -4.46119   0.69928   4.89362 
 C                    -5.22903   0.32639   3.7938 
 H                    -6.30128   0.18168   3.91073 
 H                    -4.93725   0.84566   5.87224 
 Br                   -4.18035  -0.23856  -2.10756 
 H                     7.14725   0.05154   0.86895 
 H                     2.18109   0.04708   0.76934 
 

 GradGradGradGradGradGradGradGradGradGradGradGradGradGradGradGradGradGrad
 Berny optimization.
 Initialization pass.
                           ----------------------------
                           !    Initial Parameters    !
                           ! (Angstroms and Degrees)  !
 --------------------------                            --------------------------
 ! Name  Definition         TS        Reactant Product Derivative Info.         !
 --------------------------------------------------------------------------------
 ! R1    R(1,2)             1.8346    1.8363    1.819  estimate D2E/DX2         !
 ! R2    R(1,4)             1.8365    1.8367    1.819  estimate D2E/DX2         !
 ! R3    R(1,6)             1.7707    1.8193    1.7931 estimate D2E/DX2         !
 ! R4    R(1,7)             2.2279    2.1708    2.1723 estimate D2E/DX2         !
 ! R5    R(1,13)            2.2551    2.0185    4.6843 estimate D2E/DX2         !
 ! R6    R(1,21)            2.2271    2.1713    2.173  estimate D2E/DX2         !
 ! R7    R(1,61)            3.0364    4.8943    2.6235 estimate D2E/DX2         !
 ! R8    R(2,3)             1.146     1.1404    1.1441 estimate D2E/DX2         !
 ! R9    R(4,5)             1.147     1.1403    1.1441 estimate D2E/DX2         !
 ! R10   R(6,30)            1.1547    1.145     1.1502 estimate D2E/DX2         !
 ! R11   R(7,10)            1.3356    1.3375    1.3368 estimate D2E/DX2         !
 ! R12   R(7,25)            1.3427    1.3435    1.3425 estimate D2E/DX2         !
 ! R13   R(8,9)             1.3935    1.3913    1.3909 estimate D2E/DX2         !
 ! R14   R(8,11)            1.0926    1.0901    1.0906 estimate D2E/DX2         !
 ! R15   R(8,25)            1.3884    1.3879    1.3892 estimate D2E/DX2         !
 ! R16   R(9,12)            1.0935    1.092     1.0921 estimate D2E/DX2         !
 ! R17   R(9,33)            1.399     1.3964    1.3958 estimate D2E/DX2         !
 ! R18   R(10,33)           1.402     1.4006    1.3996 estimate D2E/DX2         !
 ! R19   R(10,56)           1.0918    1.0896    1.089  estimate D2E/DX2         !
 ! R20   R(11,19)           5.2761    4.6547    2.4854 estimate D2E/DX2         !
 ! R21   R(13,14)           1.1555    1.1543    1.1573 estimate D2E/DX2         !
 ! R22   R(13,62)           9.3586    9.8989    2.3962 estimate D2E/DX2         !
 ! R23   R(14,15)           1.441     1.4314    1.4375 estimate D2E/DX2         !
 ! R24   R(15,16)           1.3976    1.4049    1.4014 estimate D2E/DX2         !
 ! R25   R(15,18)           1.3976    1.4028    1.4013 estimate D2E/DX2         !
 ! R26   R(16,17)           1.397     1.3898    1.3909 estimate D2E/DX2         !
 ! R27   R(16,19)           1.0877    1.0913    1.0903 estimate D2E/DX2         !
 ! R28   R(17,29)           1.0894    1.0912    1.0913 estimate D2E/DX2         !
 ! R29   R(17,57)           1.3904    1.397     1.3955 estimate D2E/DX2         !
 ! R30   R(18,20)           1.0906    1.0947    1.0902 estimate D2E/DX2         !
 ! R31   R(18,58)           1.3973    1.3915    1.3908 estimate D2E/DX2         !
 ! R32   R(20,24)           6.0614    6.7252    2.4934 estimate D2E/DX2         !
 ! R33   R(20,61)           3.9185    2.7148    4.3773 estimate D2E/DX2         !
 ! R34   R(21,27)           1.3406    1.3435    1.3424 estimate D2E/DX2         !
 ! R35   R(21,54)           1.3341    1.3376    1.3369 estimate D2E/DX2         !
 ! R36   R(22,23)           1.3922    1.3913    1.3908 estimate D2E/DX2         !
 ! R37   R(22,24)           1.0905    1.0901    1.0907 estimate D2E/DX2         !
 ! R38   R(22,27)           1.3894    1.3879    1.3892 estimate D2E/DX2         !
 ! R39   R(23,52)           1.3971    1.3965    1.3958 estimate D2E/DX2         !
 ! R40   R(23,53)           1.0946    1.092     1.092  estimate D2E/DX2         !
 ! R41   R(25,26)           1.093     1.0889    1.0909 estimate D2E/DX2         !
 ! R42   R(27,28)           1.0924    1.0889    1.0909 estimate D2E/DX2         !
 ! R43   R(31,39)           1.3993    1.3963    1.3967 estimate D2E/DX2         !
 ! R44   R(31,43)           1.4       1.3962    1.3968 estimate D2E/DX2         !
 ! R45   R(31,62)           3.8828    3.8738    1.0869 estimate D2E/DX2         !
 ! R46   R(31,63)           1.0887    1.0862    3.8778 estimate D2E/DX2         !
 ! R47   R(32,38)           1.4013    1.401     1.4011 estimate D2E/DX2         !
 ! R48   R(32,44)           1.4003    1.401     1.4011 estimate D2E/DX2         !
 ! R49   R(32,62)           1.0959    1.0931    3.8661 estimate D2E/DX2         !
 ! R50   R(32,63)           3.8732    3.8643    1.0932 estimate D2E/DX2         !
 ! R51   R(33,34)           1.4924    1.4876    1.4877 estimate D2E/DX2         !
 ! R52   R(34,35)           1.3729    1.372     1.3723 estimate D2E/DX2         !
 ! R53   R(34,39)           1.4526    1.4468    1.4477 estimate D2E/DX2         !
 ! R54   R(35,36)           1.4289    1.4257    1.4258 estimate D2E/DX2         !
 ! R55   R(35,40)           1.094     1.0926    1.0926 estimate D2E/DX2         !
 ! R56   R(36,37)           1.3649    1.3659    1.366  estimate D2E/DX2         !
 ! R57   R(36,41)           1.0932    1.0916    1.0918 estimate D2E/DX2         !
 ! R58   R(37,38)           1.4344    1.4322    1.4324 estimate D2E/DX2         !
 ! R59   R(37,42)           1.0952    1.0924    1.0925 estimate D2E/DX2         !
 ! R60   R(38,39)           1.4386    1.4355    1.4358 estimate D2E/DX2         !
 ! R61   R(43,44)           1.4385    1.4356    1.4358 estimate D2E/DX2         !
 ! R62   R(43,48)           1.4512    1.4469    1.4476 estimate D2E/DX2         !
 ! R63   R(44,45)           1.4356    1.4322    1.4324 estimate D2E/DX2         !
 ! R64   R(45,46)           1.364     1.3659    1.366  estimate D2E/DX2         !
 ! R65   R(45,49)           1.0952    1.0924    1.0925 estimate D2E/DX2         !
 ! R66   R(46,47)           1.4287    1.4257    1.4258 estimate D2E/DX2         !
 ! R67   R(46,50)           1.094     1.0916    1.0918 estimate D2E/DX2         !
 ! R68   R(47,48)           1.3737    1.3722    1.3723 estimate D2E/DX2         !
 ! R69   R(47,51)           1.0934    1.0926    1.0926 estimate D2E/DX2         !
 ! R70   R(48,52)           1.4914    1.4877    1.4877 estimate D2E/DX2         !
 ! R71   R(52,54)           1.4028    1.4006    1.3997 estimate D2E/DX2         !
 ! R72   R(54,55)           1.0899    1.0894    1.0891 estimate D2E/DX2         !
 ! R73   R(57,58)           1.3922    1.3955    1.3954 estimate D2E/DX2         !
 ! R74   R(57,60)           1.0981    1.092     1.0918 estimate D2E/DX2         !
 ! R75   R(58,59)           1.0883    1.0912    1.0913 estimate D2E/DX2         !
 ! A1    A(2,1,4)          95.3775   92.8602   92.6906 estimate D2E/DX2         !
 ! A2    A(2,1,6)          87.4233   89.4398   90.2928 estimate D2E/DX2         !
 ! A3    L(2,1,7,4,-1)    179.6624  181.5632  182.3854 estimate D2E/DX2         !
 ! A4    L(2,1,7,4,-2)    178.3555  182.4131  183.4865 estimate D2E/DX2         !
 ! A5    A(2,1,13)        106.261    90.4629  130.8496 estimate D2E/DX2         !
 ! A6    A(2,1,21)         84.915    89.035    89.6911 estimate D2E/DX2         !
 ! A7    A(2,1,61)         64.4783   56.7659   84.5395 estimate D2E/DX2         !
 ! A8    A(4,1,6)          87.3326   89.3883   90.279  estimate D2E/DX2         !
 ! A9    A(4,1,7)          84.2849   88.703    89.6949 estimate D2E/DX2         !
 ! A10   A(4,1,13)        108.1059   90.8132  130.8505 estimate D2E/DX2         !
 ! A11   L(4,1,21,2,-1)   180.2925  181.8953  182.3816 estimate D2E/DX2         !
 ! A12   L(4,1,21,2,-2)   182.6848  177.8035  176.5025 estimate D2E/DX2         !
 ! A13   A(4,1,61)         63.9048   55.3068   84.5361 estimate D2E/DX2         !
 ! A14   A(6,1,7)          90.9251   92.9897   93.1816 estimate D2E/DX2         !
 ! A15   L(6,1,13,2,-1)   193.6843  179.9027  221.1424 estimate D2E/DX2         !
 ! A16   L(6,1,13,2,-2)   197.7223  180.197   245.2912 estimate D2E/DX2         !
 ! A17   A(6,1,21)         90.0106   92.827    93.2059 estimate D2E/DX2         !
 ! A18   L(6,1,61,2,-1)   151.9017  146.2057  174.8323 estimate D2E/DX2         !
 ! A19   L(6,1,61,2,-2)   144.7635  133.7926  174.5395 estimate D2E/DX2         !
 ! A20   A(7,1,13)         75.3903   87.1023   45.5557 estimate D2E/DX2         !
 ! A21   A(7,1,21)         95.3457   89.3121   87.7196 estimate D2E/DX2         !
 ! A22   A(7,1,61)        116.7172  122.615    92.2245 estimate D2E/DX2         !
 ! A23   A(13,1,21)        74.3315   86.9744   45.554  estimate D2E/DX2         !
 ! A24   A(21,1,61)       118.5116  124.4079   92.2164 estimate D2E/DX2         !
 ! A25   L(1,2,3,18,-1)   186.5997  181.2299  179.5621 estimate D2E/DX2         !
 ! A26   L(1,2,3,22,-1)   177.6532  179.0518  179.5279 estimate D2E/DX2         !
 ! A27   L(1,2,3,18,-2)   173.387   178.8291  179.7608 estimate D2E/DX2         !
 ! A28   L(1,2,3,22,-2)   171.3936  178.5473  180.1171 estimate D2E/DX2         !
 ! A29   L(1,4,5,8,-1)    177.701   178.9781  179.5473 estimate D2E/DX2         !
 ! A30   L(1,4,5,8,-2)    189.6859  181.8662  179.8672 estimate D2E/DX2         !
 ! A31   L(1,6,30,10,-1)  181.3187  181.4747  182.6714 estimate D2E/DX2         !
 ! A32   L(1,6,30,10,-2)  178.5787  178.99    178.0594 estimate D2E/DX2         !
 ! A33   A(1,7,10)        122.1535  121.4044  120.1501 estimate D2E/DX2         !
 ! A34   A(1,7,25)        119.6175  121.1552  122.4403 estimate D2E/DX2         !
 ! A35   A(10,7,25)       117.8794  117.3369  117.3751 estimate D2E/DX2         !
 ! A36   A(9,8,11)        121.1516  121.2244  121.0019 estimate D2E/DX2         !
 ! A37   A(9,8,25)        119.0437  119.2911  119.5213 estimate D2E/DX2         !
 ! A38   A(11,8,25)       119.7837  119.4687  119.4588 estimate D2E/DX2         !
 ! A39   A(8,9,12)        120.4464  120.7321  120.7784 estimate D2E/DX2         !
 ! A40   A(8,9,33)        119.3274  118.9955  118.8861 estimate D2E/DX2         !
 ! A41   A(12,9,33)       120.2258  120.2701  120.331  estimate D2E/DX2         !
 ! A42   A(7,10,33)       124.1343  124.3771  124.5675 estimate D2E/DX2         !
 ! A43   A(7,10,56)       116.604   116.7619  116.7806 estimate D2E/DX2         !
 ! A44   A(33,10,56)      119.2617  118.8603  118.6518 estimate D2E/DX2         !
 ! A45   A(8,11,19)        68.6416   86.7094  101.5699 estimate D2E/DX2         !
 ! A46   L(1,13,14,8,-1)  180.1996  181.4217  143.4264 estimate D2E/DX2         !
 ! A47   L(1,13,14,8,-2)  175.9575  180.9146  272.8095 estimate D2E/DX2         !
 ! A48   A(14,13,62)      108.7     135.1856  149.7131 estimate D2E/DX2         !
 ! A49   L(13,14,15,11,-1)  180.9336  178.6485  179.8378 estimate D2E/DX2       !
 ! A50   L(13,14,15,1,-1)  180.7275  179.3423  179.8053 estimate D2E/DX2        !
 ! A51   L(13,14,15,11,-2)  181.3817  177.655  180.1544 estimate D2E/DX2        !
 ! A52   L(13,14,15,1,-2)  142.0236  323.0409  179.8888 estimate D2E/DX2        !
 ! A53   A(14,15,16)      120.2664  118.8297  119.745  estimate D2E/DX2         !
 ! A54   A(14,15,18)      119.2995  119.8879  119.8197 estimate D2E/DX2         !
 ! A55   A(16,15,18)      120.4328  121.2822  120.4296 estimate D2E/DX2         !
 ! A56   A(15,16,17)      119.5099  119.0657  119.537  estimate D2E/DX2         !
 ! A57   A(15,16,19)      119.3685  120.1746  119.8713 estimate D2E/DX2         !
 ! A58   A(17,16,19)      121.1203  120.7597  120.591  estimate D2E/DX2         !
 ! A59   A(16,17,29)      120.1273  119.7748  119.7337 estimate D2E/DX2         !
 ! A60   A(16,17,57)      120.3016  119.9927  120.0872 estimate D2E/DX2         !
 ! A61   A(29,17,57)      119.5711  120.2326  120.1787 estimate D2E/DX2         !
 ! A62   A(15,18,20)      119.1481  119.4873  119.8693 estimate D2E/DX2         !
 ! A63   A(15,18,58)      119.392   118.7694  119.546  estimate D2E/DX2         !
 ! A64   A(20,18,58)      121.4599  121.7433  120.5838 estimate D2E/DX2         !
 ! A65   A(11,19,16)       88.6409  112.1661  147.3575 estimate D2E/DX2         !
 ! A66   A(18,20,24)       62.4288   62.7598  151.9875 estimate D2E/DX2         !
 ! A67   A(18,20,61)      129.5897  162.5838   63.2149 estimate D2E/DX2         !
 ! A68   A(1,21,27)       119.8725  121.2128  122.409  estimate D2E/DX2         !
 ! A69   A(1,21,54)       121.9442  121.3339  120.1792 estimate D2E/DX2         !
 ! A70   A(27,21,54)      117.8076  117.3326  117.3719 estimate D2E/DX2         !
 ! A71   A(23,22,24)      121.1554  121.2226  120.9754 estimate D2E/DX2         !
 ! A72   A(23,22,27)      119.1108  119.2873  119.5087 estimate D2E/DX2         !
 ! A73   A(24,22,27)      119.713   119.4755  119.497  estimate D2E/DX2         !
 ! A74   A(22,23,52)      119.1731  119.0084  118.8945 estimate D2E/DX2         !
 ! A75   A(22,23,53)      120.602   120.7383  120.7806 estimate D2E/DX2         !
 ! A76   A(52,23,53)      120.2242  120.2517  120.3201 estimate D2E/DX2         !
 ! A77   A(20,24,22)       88.7266   87.5038  100.821  estimate D2E/DX2         !
 ! A78   A(7,25,8)        122.4915  122.7164  122.4501 estimate D2E/DX2         !
 ! A79   A(7,25,26)       116.8258  116.9941  116.2352 estimate D2E/DX2         !
 ! A80   A(8,25,26)       120.6764  120.2893  121.3081 estimate D2E/DX2         !
 ! A81   A(21,27,22)      122.5427  122.7187  122.4637 estimate D2E/DX2         !
 ! A82   A(21,27,28)      116.6292  116.996   116.2248 estimate D2E/DX2         !
 ! A83   A(22,27,28)      120.8174  120.2851  121.3045 estimate D2E/DX2         !
 ! A84   A(39,31,43)      122.5371  122.5723  122.3093 estimate D2E/DX2         !
 ! A85   A(39,31,62)       61.501    61.4914  118.8492 estimate D2E/DX2         !
 ! A86   A(39,31,63)      118.6587  118.7182   61.3666 estimate D2E/DX2         !
 ! A87   A(43,31,62)       61.4063   61.4953  118.8238 estimate D2E/DX2         !
 ! A88   A(43,31,63)      118.8022  118.7067   61.3697 estimate D2E/DX2         !
 ! A89   A(38,32,44)      121.8504  121.9166  121.8486 estimate D2E/DX2         !
 ! A90   A(38,32,62)      119.1118  119.0443   61.0678 estimate D2E/DX2         !
 ! A91   A(38,32,63)       60.9806   61.0778  119.0633 estimate D2E/DX2         !
 ! A92   A(44,32,62)      119.0313  119.0318   61.0645 estimate D2E/DX2         !
 ! A93   A(44,32,63)       61.0794   61.068   119.0833 estimate D2E/DX2         !
 ! A94   A(9,33,10)       116.8053  117.0675  116.9662 estimate D2E/DX2         !
 ! A95   A(9,33,34)       122.148   122.5908  122.9607 estimate D2E/DX2         !
 ! A96   A(10,33,34)      121.0328  120.3387  120.073  estimate D2E/DX2         !
 ! A97   A(33,34,35)      119.8849  120.9546  120.9417 estimate D2E/DX2         !
 ! A98   A(33,34,39)      121.1591  119.8331  119.8661 estimate D2E/DX2         !
 ! A99   A(35,34,39)      118.917   119.1791  119.1341 estimate D2E/DX2         !
 ! A100  A(34,35,36)      121.7205  121.2786  121.2856 estimate D2E/DX2         !
 ! A101  A(34,35,40)      119.46    119.6689  119.674  estimate D2E/DX2         !
 ! A102  A(36,35,40)      118.7846  119.0134  118.9947 estimate D2E/DX2         !
 ! A103  A(35,36,37)      120.6011  120.7171  120.7422 estimate D2E/DX2         !
 ! A104  A(35,36,41)      119.0337  119.0123  119.0173 estimate D2E/DX2         !
 ! A105  A(37,36,41)      120.3397  120.2457  120.2125 estimate D2E/DX2         !
 ! A106  A(36,37,38)      120.3336  120.5328  120.5232 estimate D2E/DX2         !
 ! A107  A(36,37,42)      121.0097  120.6705  120.6689 estimate D2E/DX2         !
 ! A108  A(38,37,42)      118.6553  118.7953  118.8069 estimate D2E/DX2         !
 ! A109  A(32,38,37)      121.559   122.24    122.2362 estimate D2E/DX2         !
 ! A110  A(32,38,39)      119.222   118.9991  119.0121 estimate D2E/DX2         !
 ! A111  A(37,38,39)      119.2161  118.758   118.7457 estimate D2E/DX2         !
 ! A112  A(31,39,34)      122.5896  122.1059  121.9443 estimate D2E/DX2         !
 ! A113  A(31,39,38)      118.3416  118.4984  118.6455 estimate D2E/DX2         !
 ! A114  A(34,39,38)      119.0602  119.389   119.4053 estimate D2E/DX2         !
 ! A115  A(31,43,44)      118.462   118.4837  118.6513 estimate D2E/DX2         !
 ! A116  A(31,43,48)      122.5595  122.1247  121.9344 estimate D2E/DX2         !
 ! A117  A(44,43,48)      118.9729  119.3848  119.4097 estimate D2E/DX2         !
 ! A118  A(32,44,43)      119.1241  119.0099  119.0034 estimate D2E/DX2         !
 ! A119  A(32,44,45)      121.6015  122.2187  122.2494 estimate D2E/DX2         !
 ! A120  A(43,44,45)      119.2713  118.7686  118.7409 estimate D2E/DX2         !
 ! A121  A(44,45,46)      120.3624  120.528   120.5213 estimate D2E/DX2         !
 ! A122  A(44,45,49)      118.7478  118.7904  118.817  estimate D2E/DX2         !
 ! A123  A(46,45,49)      120.8886  120.6802  120.6609 estimate D2E/DX2         !
 ! A124  A(45,46,47)      120.528   120.7068  120.7457 estimate D2E/DX2         !
 ! A125  A(45,46,50)      120.3392  120.2507  120.209  estimate D2E/DX2         !
 ! A126  A(47,46,50)      119.1126  119.0168  119.0169 estimate D2E/DX2         !
 ! A127  A(46,47,48)      121.7476  121.3037  121.2822 estimate D2E/DX2         !
 ! A128  A(46,47,51)      118.7712  118.9924  118.9961 estimate D2E/DX2         !
 ! A129  A(48,47,51)      119.4433  119.663   119.6765 estimate D2E/DX2         !
 ! A130  A(43,48,47)      119.0014  119.1567  119.1323 estimate D2E/DX2         !
 ! A131  A(43,48,52)      120.9926  119.9705  119.8668 estimate D2E/DX2         !
 ! A132  A(47,48,52)      119.9734  120.8346  120.9443 estimate D2E/DX2         !
 ! A133  A(23,52,48)      122.0213  122.5636  122.9353 estimate D2E/DX2         !
 ! A134  A(23,52,54)      116.9312  117.0493  116.97   estimate D2E/DX2         !
 ! A135  A(48,52,54)      121.0409  120.3865  120.0947 estimate D2E/DX2         !
 ! A136  A(21,54,52)      124.135   124.391   124.5567 estimate D2E/DX2         !
 ! A137  A(21,54,55)      116.4061  116.7506  116.7927 estimate D2E/DX2         !
 ! A138  A(52,54,55)      119.4585  118.8579  118.6503 estimate D2E/DX2         !
 ! A139  A(17,57,58)      119.9965  120.597   120.3067 estimate D2E/DX2         !
 ! A140  A(17,57,60)      119.961   119.6479  119.8457 estimate D2E/DX2         !
 ! A141  A(58,57,60)      120.0424  119.7552  119.8473 estimate D2E/DX2         !
 ! A142  A(18,58,57)      120.3661  120.2931  120.0864 estimate D2E/DX2         !
 ! A143  A(18,58,59)      120.0209  119.4952  119.7296 estimate D2E/DX2         !
 ! A144  A(57,58,59)      119.6129  120.2117  120.1834 estimate D2E/DX2         !
 ! A145  A(13,62,31)        2.5051    8.5014  148.3802 estimate D2E/DX2         !
 ! D1    D(4,1,7,10)      126.0017  118.0929  116.3527 estimate D2E/DX2         !
 ! D2    D(4,1,7,25)      -60.9327  -65.7047  -65.8409 estimate D2E/DX2         !
 ! D3    D(6,1,7,10)       38.7755   28.7733   26.0902 estimate D2E/DX2         !
 ! D4    D(6,1,7,25)     -148.159  -155.0243 -156.1034 estimate D2E/DX2         !
 ! D5    D(13,1,7,10)    -123.5813 -151.027   -86.5137 estimate D2E/DX2         !
 ! D6    D(13,1,7,25)      49.4843   25.1754   91.2927 estimate D2E/DX2         !
 ! D7    D(21,1,7,10)     -51.3217  -64.0218  -66.9962 estimate D2E/DX2         !
 ! D8    D(21,1,7,25)     121.7438  112.1806  110.8102 estimate D2E/DX2         !
 ! D9    D(61,1,7,10)    -177.0415  164.4312 -159.1273 estimate D2E/DX2         !
 ! D10   D(61,1,7,25)      -3.9759  -19.3665   18.679  estimate D2E/DX2         !
 ! D11   D(2,1,15,16)    -116.7492 -132.5668  117.3152 estimate D2E/DX2         !
 ! D12   D(2,1,15,18)      61.5188   46.8712   -7.0382 estimate D2E/DX2         !
 ! D13   D(4,1,15,16)     141.1858  134.5698    8.9434 estimate D2E/DX2         !
 ! D14   D(4,1,15,18)     -40.5462  -45.9921 -115.41   estimate D2E/DX2         !
 ! D15   D(7,1,15,16)      62.9259   45.9148  -62.8995 estimate D2E/DX2         !
 ! D16   D(7,1,15,18)    -118.806  -134.6472  172.7471 estimate D2E/DX2         !
 ! D17   D(21,1,15,16)    -37.6006  -43.5417 -170.8879 estimate D2E/DX2         !
 ! D18   D(21,1,15,18)    140.6675  135.8964   64.7587 estimate D2E/DX2         !
 ! D19   D(2,1,21,27)      61.1673   64.9775   66.0092 estimate D2E/DX2         !
 ! D20   D(2,1,21,54)    -126.025  -119.1227 -116.3481 estimate D2E/DX2         !
 ! D21   D(6,1,21,27)     148.5795  154.3689  156.2852 estimate D2E/DX2         !
 ! D22   D(6,1,21,54)     -38.6128  -29.7313  -26.0721 estimate D2E/DX2         !
 ! D23   D(7,1,21,27)    -120.4904 -112.6715 -110.6537 estimate D2E/DX2         !
 ! D24   D(7,1,21,54)      52.3173   63.2282   66.989  estimate D2E/DX2         !
 ! D25   D(13,1,21,27)    -47.31    -25.5371  -91.1356 estimate D2E/DX2         !
 ! D26   D(13,1,21,54)    125.4977  150.3627   86.5071 estimate D2E/DX2         !
 ! D27   D(61,1,21,27)      3.8913   17.5031  -18.5141 estimate D2E/DX2         !
 ! D28   D(61,1,21,54)    176.699  -166.5972  159.1286 estimate D2E/DX2         !
 ! D29   D(1,7,10,33)     166.5483  170.9989  173.1231 estimate D2E/DX2         !
 ! D30   D(1,7,10,56)     -13.4379   -8.6878   -6.7473 estimate D2E/DX2         !
 ! D31   D(25,7,10,33)     -6.6323   -5.3429   -4.7922 estimate D2E/DX2         !
 ! D32   D(25,7,10,56)    173.3815  174.9705  175.3374 estimate D2E/DX2         !
 ! D33   D(1,7,25,8)     -169.7056 -174.1697 -177.2166 estimate D2E/DX2         !
 ! D34   D(1,7,25,26)       9.391     5.9781    1.8568 estimate D2E/DX2         !
 ! D35   D(10,7,25,8)       3.654     2.1817    0.6474 estimate D2E/DX2         !
 ! D36   D(10,7,25,26)   -177.2494 -177.6705  179.7208 estimate D2E/DX2         !
 ! D37   D(11,8,9,12)      -1.4745   -1.589    -1.8553 estimate D2E/DX2         !
 ! D38   D(11,8,9,33)     178.2947  178.9627  178.9172 estimate D2E/DX2         !
 ! D39   D(25,8,9,12)     176.8551  176.9571  176.5923 estimate D2E/DX2         !
 ! D40   D(25,8,9,33)      -3.3757   -2.4911   -2.6352 estimate D2E/DX2         !
 ! D41   D(9,8,11,19)     100.6783  128.0158  111.5414 estimate D2E/DX2         !
 ! D42   D(25,8,11,19)    -77.6391  -50.5278  -66.9071 estimate D2E/DX2         !
 ! D43   D(9,8,25,7)        1.2289    1.6357    2.9883 estimate D2E/DX2         !
 ! D44   D(9,8,25,26)    -177.8337 -178.5168 -176.0389 estimate D2E/DX2         !
 ! D45   D(11,8,25,7)     179.5818 -179.7923 -178.5399 estimate D2E/DX2         !
 ! D46   D(11,8,25,26)      0.5192    0.0552    2.4328 estimate D2E/DX2         !
 ! D47   D(8,9,33,10)       0.7332   -0.3199   -1.0696 estimate D2E/DX2         !
 ! D48   D(8,9,33,34)    -177.9221  179.0584  179.0325 estimate D2E/DX2         !
 ! D49   D(12,9,33,10)   -179.4971 -179.7707  179.6995 estimate D2E/DX2         !
 ! D50   D(12,9,33,34)      1.8477   -0.3925   -0.1985 estimate D2E/DX2         !
 ! D51   D(7,10,33,9)       4.4512    4.4392    5.015  estimate D2E/DX2         !
 ! D52   D(7,10,33,34)   -176.8776 -174.9538 -175.0839 estimate D2E/DX2         !
 ! D53   D(56,10,33,9)   -175.563  -175.8802 -175.1168 estimate D2E/DX2         !
 ! D54   D(56,10,33,34)     3.1082    4.7267    4.7842 estimate D2E/DX2         !
 ! D55   D(8,11,19,16)    141.448   117.7639   53.3578 estimate D2E/DX2         !
 ! D56   D(62,13,15,16)    10.8947    0.4233   89.7844 estimate D2E/DX2         !
 ! D57   D(62,13,15,18)  -169.8976 -179.8178  -89.249  estimate D2E/DX2         !
 ! D58   D(14,13,62,31)     5.4994    1.3918 -178.9573 estimate D2E/DX2         !
 ! D59   D(14,15,16,17)   179.2252  179.857  -178.3155 estimate D2E/DX2         !
 ! D60   D(14,15,16,19)    -0.3738   -0.1263    1.3773 estimate D2E/DX2         !
 ! D61   D(18,15,16,17)    -0.3574    0.0027    0.8132 estimate D2E/DX2         !
 ! D62   D(18,15,16,19)  -179.9564 -179.9806 -179.494  estimate D2E/DX2         !
 ! D63   D(14,15,18,20)     0.4889    0.1848   -1.3207 estimate D2E/DX2         !
 ! D64   D(14,15,18,58)  -179.4466 -179.8524  178.3373 estimate D2E/DX2         !
 ! D65   D(16,15,18,20)  -179.9245 -179.9624  179.5513 estimate D2E/DX2         !
 ! D66   D(16,15,18,58)     0.14      0.0003   -0.7907 estimate D2E/DX2         !
 ! D67   D(15,16,17,29)  -179.6656  179.998   179.6371 estimate D2E/DX2         !
 ! D68   D(15,16,17,57)     0.2763   -0.0077   -0.1502 estimate D2E/DX2         !
 ! D69   D(19,16,17,29)    -0.0738   -0.0189   -0.0534 estimate D2E/DX2         !
 ! D70   D(19,16,17,57)   179.8682  179.9755 -179.8408 estimate D2E/DX2         !
 ! D71   D(15,16,19,11)   -56.9296  -64.5372  -76.5178 estimate D2E/DX2         !
 ! D72   D(17,16,19,11)   123.478   115.4798  103.1717 estimate D2E/DX2         !
 ! D73   D(16,17,57,58)     0.0216    0.0098   -0.5324 estimate D2E/DX2         !
 ! D74   D(16,17,57,60)   179.9187 -179.988   179.6298 estimate D2E/DX2         !
 ! D75   D(29,17,57,58)   179.9639 -179.9959  179.6812 estimate D2E/DX2         !
 ! D76   D(29,17,57,60)    -0.139     0.0063   -0.1566 estimate D2E/DX2         !
 ! D77   D(15,18,20,24)   -43.939   -39.6752   72.2844 estimate D2E/DX2         !
 ! D78   D(15,18,20,61)   -10.8269    2.2233   79.8547 estimate D2E/DX2         !
 ! D79   D(58,18,20,24)   135.9952  140.3632 -107.37   estimate D2E/DX2         !
 ! D80   D(58,18,20,61)   169.1072 -177.7383  -99.7997 estimate D2E/DX2         !
 ! D81   D(15,18,58,57)     0.1611    0.0017    0.1052 estimate D2E/DX2         !
 ! D82   D(15,18,58,59)  -179.9909  179.9964 -179.6257 estimate D2E/DX2         !
 ! D83   D(20,18,58,57)  -179.7729  179.9635  179.7607 estimate D2E/DX2         !
 ! D84   D(20,18,58,59)     0.0752   -0.0418    0.0298 estimate D2E/DX2         !
 ! D85   D(18,20,24,22)   101.7763  118.348   -46.9348 estimate D2E/DX2         !
 ! D86   D(1,21,27,22)    169.5195  173.7347  176.964  estimate D2E/DX2         !
 ! D87   D(1,21,27,28)     -9.2989   -6.4186   -2.0847 estimate D2E/DX2         !
 ! D88   D(54,21,27,22)    -3.5821   -2.3232   -0.7414 estimate D2E/DX2         !
 ! D89   D(54,21,27,28)   177.5995  177.5235 -179.79   estimate D2E/DX2         !
 ! D90   D(1,21,54,52)   -166.4649 -170.7064 -172.9049 estimate D2E/DX2         !
 ! D91   D(1,21,54,55)     13.7484    9.0522    6.903  estimate D2E/DX2         !
 ! D92   D(27,21,54,52)     6.4849    5.3464    4.8541 estimate D2E/DX2         !
 ! D93   D(27,21,54,55)  -173.3018 -174.895  -175.338  estimate D2E/DX2         !
 ! D94   D(24,22,23,52)  -178.541  -178.8661 -178.9497 estimate D2E/DX2         !
 ! D95   D(24,22,23,53)     1.7472    1.5972    1.8437 estimate D2E/DX2         !
 ! D96   D(27,22,23,52)     3.1268    2.5283    2.6426 estimate D2E/DX2         !
 ! D97   D(27,22,23,53)  -176.5851 -177.0084 -176.5639 estimate D2E/DX2         !
 ! D98   D(23,22,24,20)  -140.9025 -167.1236 -114.2662 estimate D2E/DX2         !
 ! D99   D(27,22,24,20)    37.4198   11.4793   64.1416 estimate D2E/DX2         !
 ! D100  D(23,22,27,21)    -1.1097   -1.5128   -2.9271 estimate D2E/DX2         !
 ! D101  D(23,22,27,28)   177.6603  178.6454  176.0741 estimate D2E/DX2         !
 ! D102  D(24,22,27,21)  -179.4665  179.8569  178.6415 estimate D2E/DX2         !
 ! D103  D(24,22,27,28)    -0.6964    0.0151   -2.3573 estimate D2E/DX2         !
 ! D104  D(22,23,52,48)   178.5182 -179.5503 -179.0167 estimate D2E/DX2         !
 ! D105  D(22,23,52,54)    -0.5516    0.1582    1.0323 estimate D2E/DX2         !
 ! D106  D(53,23,52,48)    -1.7688   -0.0113    0.1935 estimate D2E/DX2         !
 ! D107  D(53,23,52,54)   179.1614  179.6972 -179.7574 estimate D2E/DX2         !
 ! D108  D(43,31,39,34)  -171.3118 -171.0588 -171.1073 estimate D2E/DX2         !
 ! D109  D(43,31,39,38)     7.6094    7.9929    8.0804 estimate D2E/DX2         !
 ! D110  D(62,31,39,34)  -178.4009 -178.5638   10.4416 estimate D2E/DX2         !
 ! D111  D(62,31,39,38)     0.5202    0.4878 -170.3707 estimate D2E/DX2         !
 ! D112  D(63,31,39,34)     8.1611    8.319  -178.7139 estimate D2E/DX2         !
 ! D113  D(63,31,39,38)  -172.9177 -172.6293    0.4738 estimate D2E/DX2         !
 ! D114  D(39,31,43,44)    -7.4399   -8.0368   -8.1047 estimate D2E/DX2         !
 ! D115  D(39,31,43,48)   171.6881  171.0122  171.1092 estimate D2E/DX2         !
 ! D116  D(62,31,43,44)    -0.3443   -0.532   170.3468 estimate D2E/DX2         !
 ! D117  D(62,31,43,48)   178.7837  178.517   -10.4393 estimate D2E/DX2         !
 ! D118  D(63,31,43,44)   173.088   172.5853   -0.4984 estimate D2E/DX2         !
 ! D119  D(63,31,43,48)    -7.784    -8.3657  178.7155 estimate D2E/DX2         !
 ! D120  D(39,31,62,13)    89.7559   86.7475   89.3766 estimate D2E/DX2         !
 ! D121  D(43,31,62,13)   -83.4388  -86.0571  -89.1292 estimate D2E/DX2         !
 ! D122  D(44,32,38,37)   178.2425  178.0761  178.3863 estimate D2E/DX2         !
 ! D123  D(44,32,38,39)    -2.3798   -2.5547   -2.5202 estimate D2E/DX2         !
 ! D124  D(62,32,38,37)    -0.8225   -0.9271 -175.4289 estimate D2E/DX2         !
 ! D125  D(62,32,38,39)   178.5551  178.4421    3.6647 estimate D2E/DX2         !
 ! D126  D(63,32,38,37)  -176.4385 -176.3626   -0.8107 estimate D2E/DX2         !
 ! D127  D(63,32,38,39)     2.9392    3.0066  178.2828 estimate D2E/DX2         !
 ! D128  D(38,32,44,43)     2.5571    2.5098    2.496  estimate D2E/DX2         !
 ! D129  D(38,32,44,45)  -178.0737 -178.1172 -178.4259 estimate D2E/DX2         !
 ! D130  D(62,32,44,43)  -178.3771 -178.4869   -3.689  estimate D2E/DX2         !
 ! D131  D(62,32,44,45)     0.9921    0.8861  175.3891 estimate D2E/DX2         !
 ! D132  D(63,32,44,43)    -2.7569   -3.052  -178.3071 estimate D2E/DX2         !
 ! D133  D(63,32,44,45)   176.6124  176.3211    0.771  estimate D2E/DX2         !
 ! D134  D(9,33,34,35)     45.6181   51.0888   50.1007 estimate D2E/DX2         !
 ! D135  D(9,33,34,39)   -136.681  -131.0271 -132.6936 estimate D2E/DX2         !
 ! D136  D(10,33,34,35)  -132.9811 -129.5527 -129.7941 estimate D2E/DX2         !
 ! D137  D(10,33,34,39)    44.7198   48.3314   47.4115 estimate D2E/DX2         !
 ! D138  D(33,34,35,36)   177.0606  176.8502  176.1599 estimate D2E/DX2         !
 ! D139  D(33,34,35,40)    -0.7646   -0.8529   -1.356  estimate D2E/DX2         !
 ! D140  D(39,34,35,36)    -0.6918   -1.0475   -1.0659 estimate D2E/DX2         !
 ! D141  D(39,34,35,40)  -178.517  -178.7507 -178.5818 estimate D2E/DX2         !
 ! D142  D(33,34,39,31)     4.9854    5.0696    6.0886 estimate D2E/DX2         !
 ! D143  D(33,34,39,38)  -173.9283 -173.9738 -173.0931 estimate D2E/DX2         !
 ! D144  D(35,34,39,31)  -177.2918 -177.0086 -176.6552 estimate D2E/DX2         !
 ! D145  D(35,34,39,38)     3.7944    3.9479    4.1631 estimate D2E/DX2         !
 ! D146  D(34,35,36,37)    -2.0665   -1.7539   -1.9335 estimate D2E/DX2         !
 ! D147  D(34,35,36,41)   179.763  -179.946   179.9868 estimate D2E/DX2         !
 ! D148  D(40,35,36,37)   175.773   175.9639  175.5989 estimate D2E/DX2         !
 ! D149  D(40,35,36,41)    -2.3976   -2.2281   -2.4808 estimate D2E/DX2         !
 ! D150  D(35,36,37,38)     1.5939    1.5673    1.7411 estimate D2E/DX2         !
 ! D151  D(35,36,37,42)  -177.9768 -177.994  -177.8964 estimate D2E/DX2         !
 ! D152  D(41,36,37,38)   179.7405  179.737   179.7978 estimate D2E/DX2         !
 ! D153  D(41,36,37,42)     0.1698    0.1757    0.1604 estimate D2E/DX2         !
 ! D154  D(36,37,38,32)  -179.062  -179.2627 -179.5119 estimate D2E/DX2         !
 ! D155  D(36,37,38,39)     1.5603    1.3667    1.3922 estimate D2E/DX2         !
 ! D156  D(42,37,38,32)     0.5187    0.3067    0.1322 estimate D2E/DX2         !
 ! D157  D(42,37,38,39)  -178.859  -179.0639 -178.9637 estimate D2E/DX2         !
 ! D158  D(32,38,39,31)    -2.5865   -2.5673   -2.6519 estimate D2E/DX2         !
 ! D159  D(32,38,39,34)   176.3737  176.5107  176.5569 estimate D2E/DX2         !
 ! D160  D(37,38,39,31)   176.8059  176.824   176.4737 estimate D2E/DX2         !
 ! D161  D(37,38,39,34)    -4.234    -4.0979   -4.3176 estimate D2E/DX2         !
 ! D162  D(31,43,44,32)     2.2332    2.6566    2.6995 estimate D2E/DX2         !
 ! D163  D(31,43,44,45)  -177.1509 -176.7383 -176.4112 estimate D2E/DX2         !
 ! D164  D(48,43,44,32)  -176.9267 -176.4191 -176.5346 estimate D2E/DX2         !
 ! D165  D(48,43,44,45)     3.6892    4.186     4.3546 estimate D2E/DX2         !
 ! D166  D(31,43,48,47)   177.4591  176.9457  176.5563 estimate D2E/DX2         !
 ! D167  D(31,43,48,52)    -4.622    -5.2827   -6.1537 estimate D2E/DX2         !
 ! D168  D(44,43,48,47)    -3.4171   -4.0136   -4.2356 estimate D2E/DX2         !
 ! D169  D(44,43,48,52)   174.5017  173.758   173.0544 estimate D2E/DX2         !
 ! D170  D(32,44,45,46)   179.332   179.2214  179.5474 estimate D2E/DX2         !
 ! D171  D(32,44,45,49)    -0.2704   -0.3466   -0.1163 estimate D2E/DX2         !
 ! D172  D(43,44,45,46)    -1.2996   -1.4041   -1.3722 estimate D2E/DX2         !
 ! D173  D(43,44,45,49)   179.098   179.0279  178.9641 estimate D2E/DX2         !
 ! D174  D(44,45,46,47)    -1.4017   -1.6024   -1.7832 estimate D2E/DX2         !
 ! D175  D(44,45,46,50)  -179.7525 -179.7387 -179.8274 estimate D2E/DX2         !
 ! D176  D(49,45,46,47)   178.1921  177.9574  177.8742 estimate D2E/DX2         !
 ! D177  D(49,45,46,50)    -0.1587   -0.1789   -0.1699 estimate D2E/DX2         !
 ! D178  D(45,46,47,48)     1.6974    1.8123    1.9391 estimate D2E/DX2         !
 ! D179  D(45,46,47,51)  -176.0512 -175.853  -175.6076 estimate D2E/DX2         !
 ! D180  D(50,46,47,48)  -179.9317  179.9713 -179.9938 estimate D2E/DX2         !
 ! D181  D(50,46,47,51)     2.3197    2.306     2.4595 estimate D2E/DX2         !
 ! D182  D(46,47,48,43)     0.7679    1.0412    1.1177 estimate D2E/DX2         !
 ! D183  D(46,47,48,52)  -177.1726 -176.7106 -176.1422 estimate D2E/DX2         !
 ! D184  D(51,47,48,43)   178.5018  178.691   178.648  estimate D2E/DX2         !
 ! D185  D(51,47,48,52)     0.5612    0.9392    1.388  estimate D2E/DX2         !
 ! D186  D(43,48,52,23)   134.8276  131.8205  132.61   estimate D2E/DX2         !
 ! D187  D(43,48,52,54)   -46.1403  -47.8786  -47.4405 estimate D2E/DX2         !
 ! D188  D(47,48,52,23)   -47.2736  -50.4459  -50.15   estimate D2E/DX2         !
 ! D189  D(47,48,52,54)   131.7584  129.855   129.7995 estimate D2E/DX2         !
 ! D190  D(23,52,54,21)    -4.438    -4.2914   -5.0121 estimate D2E/DX2         !
 ! D191  D(23,52,54,55)   175.3426  175.9547  175.1833 estimate D2E/DX2         !
 ! D192  D(48,52,54,21)   176.4826  175.4238  175.0354 estimate D2E/DX2         !
 ! D193  D(48,52,54,55)    -3.7368   -4.3301   -4.7691 estimate D2E/DX2         !
 ! D194  D(17,57,58,18)    -0.2421   -0.0068    0.5552 estimate D2E/DX2         !
 ! D195  D(17,57,58,59)   179.9092  179.9986 -179.7151 estimate D2E/DX2         !
 ! D196  D(60,57,58,18)   179.8608  179.991  -179.607  estimate D2E/DX2         !
 ! D197  D(60,57,58,59)     0.0121   -0.0036    0.1226 estimate D2E/DX2         !
 --------------------------------------------------------------------------------
 Trust Radius=3.00D-01 FncErr=1.00D-07 GrdErr=1.00D-06 EigMax=2.50D+02 EigMin=1.00D-04
 Number of steps in this run=    378 maximum allowed number of steps=    378.
 Search for a saddle point of order  1.
 GradGradGradGradGradGradGradGradGradGradGradGradGradGradGradGradGradGrad

 Stoichiometry    C34H21BrMnN3O3
 Framework group  C1[X(C34H21BrMnN3O3)]
 Deg. of freedom   183
 Full point group                 C1      NOp   1
 Largest Abelian subgroup         C1      NOp   1
 Largest concise Abelian subgroup C1      NOp   1
                         Standard orientation:                         
 ---------------------------------------------------------------------
 Center     Atomic      Atomic             Coordinates (Angstroms)
 Number     Number       Type             X           Y           Z
 ---------------------------------------------------------------------
      1         25           0       -1.461658   -1.617943   -0.533154
      2          6           0       -2.320140   -2.023986   -2.102874
      3          8           0       -2.697174   -2.310942   -3.146379
      4          6           0       -2.264253   -2.945177    0.450267
      5          8           0       -2.585003   -3.845508    1.084410
      6          6           0       -0.235052   -2.811032   -0.988405
      7          7           0       -0.378896   -1.174843    1.362846
      8          6           0       -0.460127   -0.329039    3.601394
      9          6           0        0.924971   -0.177330    3.615698
     10          6           0        0.954125   -1.118674    1.423673
     11          1           0       -1.068743   -0.045227    4.463291
     12          1           0        1.426228    0.253423    4.486813
     13          7           0       -2.296805    0.362521    0.149324
     14          6           0       -2.659051    1.412912    0.466591
     15          6           0       -3.148519    2.713532    0.847572
     16          6           0       -2.273261    3.800243    0.926407
     17          6           0       -2.767667    5.057687    1.281570
     18          6           0       -4.507793    2.877485    1.128431
     19          1           0       -1.218875    3.653213    0.703472
     20          1           0       -5.171811    2.014946    1.061628
     21          7           0       -0.406870   -0.072195   -1.740566
     22          6           0       -0.501333    2.011183   -2.916153
     23          6           0        0.885284    2.126673   -2.869828
     24          1           0       -1.116753    2.784249   -3.377451
     25          6           0       -1.072847   -0.817869    2.455428
     26          1           0       -2.160275   -0.914361    2.402416
     27          6           0       -1.107428    0.905717   -2.332183
     28          1           0       -2.195181    0.805724   -2.318897
     29          1           0       -2.095333    5.912812    1.340772
     30          8           0        0.537636   -3.615677   -1.286546
     31          6           0        3.183767    0.489353    0.171416
     32          6           0        5.965729    0.329959    0.093348
     33          6           0        1.670613   -0.586493    2.504950
     34          6           0        3.159870   -0.495337    2.470893
     35          6           0        3.895924   -0.917847    3.550034
     36          6           0        5.324749   -0.906130    3.535871
     37          6           0        6.005311   -0.509126    2.421357
     38          6           0        5.293651   -0.064845    1.257890
     39          6           0        3.856441   -0.010794    1.291911
     40          1           0        3.381041   -1.307305    4.433259
     41          1           0        5.866954   -1.248769    4.421191
     42          1           0        7.099986   -0.528695    2.391822
     43          6           0        3.839491    0.789995   -1.028381
     44          6           0        5.276432    0.730259   -1.057933
     45          6           0        5.969518    1.094725   -2.261141
     46          6           0        5.272156    1.467903   -3.372428
     47          6           0        3.843511    1.472967   -3.364963
     48          6           0        3.125365    1.139937   -2.242271
     49          1           0        7.064114    1.060461   -2.269451
     50          1           0        5.800624    1.741700   -4.290414
     51          1           0        3.313261    1.713886   -4.290313
     52          6           0        1.635601    1.097204   -2.296230
     53          1           0        1.384317    3.013735   -3.272565
     54          6           0        0.924409    0.001110   -1.785635
     55          1           0        1.470600   -0.858906   -1.398407
     56          1           0        1.499926   -1.517727    0.566430
     57          6           0       -4.119281    5.226916    1.560423
     58          6           0       -4.986544    4.140328    1.486736
     59          1           0       -6.043009    4.279552    1.707722
     60          1           0       -4.501641    6.217477    1.840328
     61         35           0       -4.495155   -1.548584   -0.421077
     62          1           0        7.061334    0.310774    0.077564
     63          1           0        2.107701    0.642244    0.233625
 ---------------------------------------------------------------------
 Rotational constants (GHZ):           0.0974316           0.0512672           0.0494166
 General basis read from cards:  (5D, 7F)
 There are   802 symmetry adapted cartesian basis functions of A   symmetry.
 There are   751 symmetry adapted basis functions of A   symmetry.
   751 basis functions,  1339 primitive gaussians,   802 cartesian basis functions
   165 alpha electrons      165 beta electrons
       nuclear repulsion energy      6031.1772541256 Hartrees.
 NAtoms=   63 NActive=   63 NUniq=   63 SFac= 1.00D+00 NAtFMM=   60 NAOKFM=T Big=T
 Integral buffers will be    131072 words long.
 Raffenetti 2 integral format.
 Two-electron integral symmetry is turned on.
 Nuclear repulsion after empirical dispersion term =     6031.1130854397 Hartrees.
 ------------------------------------------------------------------------------
 Polarizable Continuum Model (PCM)
 =================================
 Model                : PCM.
 Atomic radii         : UFF (Universal Force Field).
 Polarization charges : Total charges.
 Charge compensation  : None.
 Solution method      : On-the-fly selection.
 Cavity type          : Scaled VdW (van der Waals Surface) (Alpha=1.100).
 Cavity algorithm     : GePol (No added spheres)
                        Default sphere list used, NSphG=   63.
                        Lebedev-Laikov grids with approx.  5.0 points / Ang**2.
                        Smoothing algorithm: York/Karplus (Gamma=1.0000).
                        Polarization charges: spherical gaussians, with
                                              point-specific exponents (IZeta= 3).
                        Self-potential: point-specific (ISelfS= 7).
                        Self-field    : sphere-specific E.n sum rule (ISelfD= 2).
 1st derivatives      : Analytical E(r).r(x)/FMM algorithm (CHGder, D1EAlg=3).
                        Cavity 1st derivative terms included.
 Solvent              : TetraHydroFuran, Eps=   7.425700 Eps(inf)=   1.974025
 ------------------------------------------------------------------------------
 One-electron integrals computed using PRISM.
 PrsmSu:  requested number of processors reduced to:  11 ShMem   1 Linda.
 NBasis=   751 RedAO= T EigKep=  2.29D-04  NBF=   751
 NBsUse=   751 1.00D-06 EigRej= -1.00D+00 NBFU=   751
 ExpMin= 3.93D-02 ExpMax= 2.77D+05 ExpMxC= 1.70D+04 IAcc=3 IRadAn=         5 AccDes= 0.00D+00
 Harris functional with IExCor= 4639 and IRadAn=       5 diagonalized for initial guess.
 HarFok:  IExCor= 4639 AccDes= 0.00D+00 IRadAn=         5 IDoV= 1 UseB2=F ITyADJ=14
 ICtDFT=  3500011 ScaDFX=  1.000000  1.000000  1.000000  1.000000
 FoFCou: FMM=F IPFlag=           0 FMFlag=      100000 FMFlg1=        2001
         NFxFlg=           0 DoJE=T BraDBF=F KetDBF=T FulRan=T
         wScrn=  0.000000 ICntrl=       500 IOpCl=  0 I1Cent=   200000004 NGrid=           0
         NMat0=    1 NMatS0=      1 NMatT0=    0 NMatD0=    1 NMtDS0=    0 NMtDT0=    0
 Petite list used in FoFCou.
 Requested convergence on RMS density matrix=1.00D-08 within 128 cycles.
 Requested convergence on MAX density matrix=1.00D-06.
 Requested convergence on             energy=1.00D-06.
 No special actions if energy rises.
 CoulSu:  requested number of processors reduced to:   9 ShMem   1 Linda.
 Inv3:  Mode=1 IEnd=    68516523.
 Iteration    1 A*A^-1 deviation from unit magnitude is 3.66D-15 for    249.
 Iteration    1 A*A^-1 deviation from orthogonality  is 2.19D-15 for   2941   2784.
 Iteration    1 A^-1*A deviation from unit magnitude is 3.66D-15 for    249.
 Iteration    1 A^-1*A deviation from orthogonality  is 2.00D-15 for   2642   1917.
 CoulSu:  requested number of processors reduced to:   9 ShMem   1 Linda.
 CoulSu:  requested number of processors reduced to:   9 ShMem   1 Linda.
 Error on total polarization charges =  0.02032
 SCF Done:  E(RwB97XD) =  -5421.43052306     A.U. after   20 cycles
            NFock= 20  Conv=0.64D-08     -V/T= 2.0041

 **********************************************************************

            Population analysis using the SCF density.

 **********************************************************************

 Orbital symmetries:
       Occupied  (A) (A) (A) (A) (A) (A) (A) (A) (A) (A) (A) (A)
                 (A) (A) (A) (A) (A) (A) (A) (A) (A) (A) (A) (A)
                 (A) (A) (A) (A) (A) (A) (A) (A) (A) (A) (A) (A)
                 (A) (A) (A) (A) (A) (A) (A) (A) (A) (A) (A) (A)
                 (A) (A) (A) (A) (A) (A) (A) (A) (A) (A) (A) (A)
                 (A) (A) (A) (A) (A) (A) (A) (A) (A) (A) (A) (A)
                 (A) (A) (A) (A) (A) (A) (A) (A) (A) (A) (A) (A)
                 (A) (A) (A) (A) (A) (A) (A) (A) (A) (A) (A) (A)
                 (A) (A) (A) (A) (A) (A) (A) (A) (A) (A) (A) (A)
                 (A) (A) (A) (A) (A) (A) (A) (A) (A) (A) (A) (A)
                 (A) (A) (A) (A) (A) (A) (A) (A) (A) (A) (A) (A)
                 (A) (A) (A) (A) (A) (A) (A) (A) (A) (A) (A) (A)
                 (A) (A) (A) (A) (A) (A) (A) (A) (A) (A) (A) (A)
                 (A) (A) (A) (A) (A) (A) (A) (A) (A)
       Virtual   (A) (A) (A) (A) (A) (A) (A) (A) (A) (A) (A) (A)
                 (A) (A) (A) (A) (A) (A) (A) (A) (A) (A) (A) (A)
                 (A) (A) (A) (A) (A) (A) (A) (A) (A) (A) (A) (A)
                 (A) (A) (A) (A) (A) (A) (A) (A) (A) (A) (A) (A)
                 (A) (A) (A) (A) (A) (A) (A) (A) (A) (A) (A) (A)
                 (A) (A) (A) (A) (A) (A) (A) (A) (A) (A) (A) (A)
                 (A) (A) (A) (A) (A) (A) (A) (A) (A) (A) (A) (A)
                 (A) (A) (A) (A) (A) (A) (A) (A) (A) (A) (A) (A)
                 (A) (A) (A) (A) (A) (A) (A) (A) (A) (A) (A) (A)
                 (A) (A) (A) (A) (A) (A) (A) (A) (A) (A) (A) (A)
                 (A) (A) (A) (A) (A) (A) (A) (A) (A) (A) (A) (A)
                 (A) (A) (A) (A) (A) (A) (A) (A) (A) (A) (A) (A)
                 (A) (A) (A) (A) (A) (A) (A) (A) (A) (A) (A) (A)
                 (A) (A) (A) (A) (A) (A) (A) (A) (A) (A) (A) (A)
                 (A) (A) (A) (A) (A) (A) (A) (A) (A) (A) (A) (A)
                 (A) (A) (A) (A) (A) (A) (A) (A) (A) (A) (A) (A)
                 (A) (A) (A) (A) (A) (A) (A) (A) (A) (A) (A) (A)
                 (A) (A) (A) (A) (A) (A) (A) (A) (A) (A) (A) (A)
                 (A) (A) (A) (A) (A) (A) (A) (A) (A) (A) (A) (A)
                 (A) (A) (A) (A) (A) (A) (A) (A) (A) (A) (A) (A)
                 (A) (A) (A) (A) (A) (A) (A) (A) (A) (A) (A) (A)
                 (A) (A) (A) (A) (A) (A) (A) (A) (A) (A) (A) (A)
                 (A) (A) (A) (A) (A) (A) (A) (A) (A) (A) (A) (A)
                 (A) (A) (A) (A) (A) (A) (A) (A) (A) (A) (A) (A)
                 (A) (A) (A) (A) (A) (A) (A) (A) (A) (A) (A) (A)
                 (A) (A) (A) (A) (A) (A) (A) (A) (A) (A) (A) (A)
                 (A) (A) (A) (A) (A) (A) (A) (A) (A) (A) (A) (A)
                 (A) (A) (A) (A) (A) (A) (A) (A) (A) (A) (A) (A)
                 (A) (A) (A) (A) (A) (A) (A) (A) (A) (A) (A) (A)
                 (A) (A) (A) (A) (A) (A) (A) (A) (A) (A) (A) (A)
                 (A) (A) (A) (A) (A) (A) (A) (A) (A) (A) (A) (A)
                 (A) (A) (A) (A) (A) (A) (A) (A) (A) (A) (A) (A)
                 (A) (A) (A) (A) (A) (A) (A) (A) (A) (A) (A) (A)
                 (A) (A) (A) (A) (A) (A) (A) (A) (A) (A) (A) (A)
                 (A) (A) (A) (A) (A) (A) (A) (A) (A) (A) (A) (A)
                 (A) (A) (A) (A) (A) (A) (A) (A) (A) (A) (A) (A)
                 (A) (A) (A) (A) (A) (A) (A) (A) (A) (A) (A) (A)
                 (A) (A) (A) (A) (A) (A) (A) (A) (A) (A) (A) (A)
                 (A) (A) (A) (A) (A) (A) (A) (A) (A) (A) (A) (A)
                 (A) (A) (A) (A) (A) (A) (A) (A) (A) (A) (A) (A)
                 (A) (A) (A) (A) (A) (A) (A) (A) (A) (A) (A) (A)
                 (A) (A) (A) (A) (A) (A) (A) (A) (A) (A) (A) (A)
                 (A) (A) (A) (A) (A) (A) (A) (A) (A) (A) (A) (A)
                 (A) (A) (A) (A) (A) (A) (A) (A) (A) (A) (A) (A)
                 (A) (A) (A) (A) (A) (A) (A) (A) (A) (A) (A) (A)
                 (A) (A) (A) (A) (A) (A) (A) (A) (A) (A) (A) (A)
                 (A) (A) (A) (A) (A) (A) (A) (A) (A) (A) (A) (A)
                 (A) (A) (A) (A) (A) (A) (A) (A) (A) (A) (A) (A)
                 (A) (A) (A) (A) (A) (A) (A) (A) (A) (A)
 The electronic state is 1-A.
 Alpha  occ. eigenvalues -- -482.96108-235.69005 -62.54164 -56.34738 -56.34714
 Alpha  occ. eigenvalues --  -56.34696 -27.45710 -23.51563 -23.51508 -23.51063
 Alpha  occ. eigenvalues --  -19.32614 -19.32614 -19.32571 -14.49790 -14.49779
 Alpha  occ. eigenvalues --  -14.47971 -10.40618 -10.40607 -10.40325 -10.37353
 Alpha  occ. eigenvalues --  -10.36619 -10.36605 -10.36099 -10.36098 -10.35895
 Alpha  occ. eigenvalues --  -10.34388 -10.34378 -10.34253 -10.34241 -10.33689
 Alpha  occ. eigenvalues --  -10.33514 -10.33511 -10.33494 -10.33267 -10.33258
 Alpha  occ. eigenvalues --  -10.33100 -10.33086 -10.32826 -10.32798 -10.32796
 Alpha  occ. eigenvalues --  -10.32574 -10.32481 -10.32215 -10.32214 -10.32029
 Alpha  occ. eigenvalues --  -10.32006 -10.31928 -10.31926 -10.31774 -10.31774
 Alpha  occ. eigenvalues --   -8.70950  -6.52706  -6.52612  -6.52551  -3.25107
 Alpha  occ. eigenvalues --   -2.63211  -2.63197  -2.63146  -2.63072  -2.63067
 Alpha  occ. eigenvalues --   -2.10832  -2.10485  -2.09671  -1.21609  -1.21508
 Alpha  occ. eigenvalues --   -1.21214  -1.07895  -1.07621  -1.03400  -1.00009
 Alpha  occ. eigenvalues --   -0.98303  -0.97321  -0.94092  -0.92898  -0.91136
 Alpha  occ. eigenvalues --   -0.90455  -0.89439  -0.88651  -0.87139  -0.86502
 Alpha  occ. eigenvalues --   -0.84993  -0.84764  -0.81722  -0.76450  -0.76348
 Alpha  occ. eigenvalues --   -0.75481  -0.75052  -0.74986  -0.74850  -0.74072
 Alpha  occ. eigenvalues --   -0.72446  -0.72044  -0.69932  -0.68713  -0.67136
 Alpha  occ. eigenvalues --   -0.66004  -0.64465  -0.64386  -0.64219  -0.63670
 Alpha  occ. eigenvalues --   -0.63491  -0.62340  -0.61806  -0.60588  -0.59683
 Alpha  occ. eigenvalues --   -0.59552  -0.57602  -0.57431  -0.57376  -0.57035
 Alpha  occ. eigenvalues --   -0.56200  -0.55900  -0.55641  -0.55419  -0.55344
 Alpha  occ. eigenvalues --   -0.54937  -0.54562  -0.54389  -0.53977  -0.53910
 Alpha  occ. eigenvalues --   -0.53278  -0.53137  -0.53063  -0.52706  -0.52214
 Alpha  occ. eigenvalues --   -0.52166  -0.51658  -0.51053  -0.51039  -0.50907
 Alpha  occ. eigenvalues --   -0.50785  -0.50740  -0.49931  -0.49421  -0.49087
 Alpha  occ. eigenvalues --   -0.48355  -0.48224  -0.47428  -0.47093  -0.46830
 Alpha  occ. eigenvalues --   -0.46248  -0.45714  -0.44711  -0.44537  -0.43503
 Alpha  occ. eigenvalues --   -0.42791  -0.41719  -0.40937  -0.40556  -0.40362
 Alpha  occ. eigenvalues --   -0.39843  -0.39183  -0.37614  -0.36305  -0.35865
 Alpha  occ. eigenvalues --   -0.35722  -0.33617  -0.33379  -0.33167  -0.31959
 Alpha  occ. eigenvalues --   -0.31049  -0.29816  -0.29638  -0.27897  -0.26731
 Alpha virt. eigenvalues --   -0.02899  -0.00216   0.00515   0.00692   0.02054
 Alpha virt. eigenvalues --    0.02254   0.02490   0.03620   0.04443   0.05190
 Alpha virt. eigenvalues --    0.05956   0.06852   0.07758   0.08236   0.08869
 Alpha virt. eigenvalues --    0.09347   0.09416   0.09740   0.11628   0.12021
 Alpha virt. eigenvalues --    0.12568   0.13037   0.13413   0.13610   0.14018
 Alpha virt. eigenvalues --    0.14410   0.14698   0.15284   0.15405   0.16087
 Alpha virt. eigenvalues --    0.16380   0.16587   0.17347   0.18200   0.18818
 Alpha virt. eigenvalues --    0.18973   0.19603   0.19792   0.20434   0.20704
 Alpha virt. eigenvalues --    0.20947   0.21852   0.22107   0.22303   0.22775
 Alpha virt. eigenvalues --    0.22951   0.22986   0.23352   0.24720   0.25107
 Alpha virt. eigenvalues --    0.26588   0.27243   0.27554   0.28012   0.28743
 Alpha virt. eigenvalues --    0.29097   0.30046   0.30123   0.30546   0.30759
 Alpha virt. eigenvalues --    0.31332   0.31808   0.32267   0.32930   0.33089
 Alpha virt. eigenvalues --    0.33165   0.33304   0.34032   0.34179   0.34339
 Alpha virt. eigenvalues --    0.34447   0.35145   0.35511   0.35863   0.35918
 Alpha virt. eigenvalues --    0.36267   0.36505   0.36851   0.36910   0.37428
 Alpha virt. eigenvalues --    0.38270   0.38312   0.39046   0.39468   0.40058
 Alpha virt. eigenvalues --    0.40265   0.40649   0.41827   0.42007   0.42209
 Alpha virt. eigenvalues --    0.42425   0.42556   0.42665   0.43979   0.44355
 Alpha virt. eigenvalues --    0.44554   0.46068   0.46439   0.47013   0.47279
 Alpha virt. eigenvalues --    0.47561   0.48268   0.48407   0.48928   0.49350
 Alpha virt. eigenvalues --    0.50182   0.50298   0.51053   0.51202   0.51491
 Alpha virt. eigenvalues --    0.52276   0.52432   0.52827   0.52934   0.53061
 Alpha virt. eigenvalues --    0.53380   0.53462   0.54461   0.54487   0.54966
 Alpha virt. eigenvalues --    0.55187   0.55507   0.55898   0.56069   0.56258
 Alpha virt. eigenvalues --    0.56769   0.57034   0.57817   0.57954   0.58380
 Alpha virt. eigenvalues --    0.58858   0.59030   0.59690   0.60209   0.60417
 Alpha virt. eigenvalues --    0.60804   0.61452   0.61655   0.62157   0.62559
 Alpha virt. eigenvalues --    0.62940   0.63824   0.64273   0.64565   0.64755
 Alpha virt. eigenvalues --    0.65522   0.66188   0.66682   0.66998   0.67299
 Alpha virt. eigenvalues --    0.67768   0.68411   0.68532   0.68722   0.69100
 Alpha virt. eigenvalues --    0.69854   0.70226   0.70485   0.70917   0.71596
 Alpha virt. eigenvalues --    0.71968   0.72035   0.72182   0.72507   0.72704
 Alpha virt. eigenvalues --    0.72862   0.73165   0.73537   0.73606   0.73831
 Alpha virt. eigenvalues --    0.74466   0.74774   0.75059   0.75192   0.75437
 Alpha virt. eigenvalues --    0.75884   0.75988   0.76102   0.76551   0.77057
 Alpha virt. eigenvalues --    0.77113   0.77182   0.77386   0.78013   0.78654
 Alpha virt. eigenvalues --    0.79225   0.79390   0.79508   0.79775   0.80161
 Alpha virt. eigenvalues --    0.80301   0.80924   0.81163   0.81388   0.81923
 Alpha virt. eigenvalues --    0.82017   0.82594   0.82918   0.82999   0.83712
 Alpha virt. eigenvalues --    0.84024   0.84505   0.84934   0.85284   0.85609
 Alpha virt. eigenvalues --    0.85874   0.85984   0.86198   0.87041   0.87073
 Alpha virt. eigenvalues --    0.87755   0.88034   0.88658   0.88961   0.89614
 Alpha virt. eigenvalues --    0.90206   0.90652   0.90715   0.91143   0.91318
 Alpha virt. eigenvalues --    0.91820   0.92296   0.92801   0.93792   0.94148
 Alpha virt. eigenvalues --    0.94584   0.95040   0.95501   0.96444   0.96498
 Alpha virt. eigenvalues --    0.97475   0.97689   0.97733   0.97937   0.98800
 Alpha virt. eigenvalues --    0.99349   1.00296   1.01723   1.02065   1.02218
 Alpha virt. eigenvalues --    1.03176   1.03569   1.04422   1.05341   1.07240
 Alpha virt. eigenvalues --    1.08067   1.08532   1.09557   1.10722   1.11670
 Alpha virt. eigenvalues --    1.12129   1.13388   1.14326   1.15042   1.15564
 Alpha virt. eigenvalues --    1.16022   1.16393   1.16793   1.16908   1.17314
 Alpha virt. eigenvalues --    1.18014   1.18257   1.19121   1.21144   1.21414
 Alpha virt. eigenvalues --    1.22458   1.23102   1.24301   1.25029   1.25948
 Alpha virt. eigenvalues --    1.26344   1.26459   1.27422   1.27929   1.28291
 Alpha virt. eigenvalues --    1.29147   1.29645   1.29887   1.30151   1.30379
 Alpha virt. eigenvalues --    1.30550   1.30970   1.31535   1.31765   1.32142
 Alpha virt. eigenvalues --    1.32266   1.33579   1.33716   1.34314   1.34628
 Alpha virt. eigenvalues --    1.35113   1.35311   1.35857   1.36026   1.36048
 Alpha virt. eigenvalues --    1.36269   1.36679   1.37091   1.38364   1.38914
 Alpha virt. eigenvalues --    1.39177   1.39551   1.41231   1.41809   1.41919
 Alpha virt. eigenvalues --    1.42869   1.44074   1.44547   1.45070   1.46394
 Alpha virt. eigenvalues --    1.47321   1.47825   1.50611   1.50783   1.52154
 Alpha virt. eigenvalues --    1.54503   1.55400   1.55803   1.58872   1.59511
 Alpha virt. eigenvalues --    1.60110   1.61768   1.63178   1.64073   1.65181
 Alpha virt. eigenvalues --    1.66533   1.66816   1.67692   1.67910   1.68862
 Alpha virt. eigenvalues --    1.70765   1.71794   1.72584   1.72911   1.73154
 Alpha virt. eigenvalues --    1.73426   1.73617   1.73821   1.74311   1.74899
 Alpha virt. eigenvalues --    1.75273   1.76788   1.76891   1.77284   1.77914
 Alpha virt. eigenvalues --    1.78240   1.78349   1.79092   1.79212   1.79647
 Alpha virt. eigenvalues --    1.79837   1.80508   1.80747   1.80939   1.81155
 Alpha virt. eigenvalues --    1.81533   1.81625   1.81955   1.82068   1.82105
 Alpha virt. eigenvalues --    1.82294   1.82782   1.83030   1.83231   1.83495
 Alpha virt. eigenvalues --    1.83713   1.84026   1.84576   1.85249   1.85703
 Alpha virt. eigenvalues --    1.86069   1.86296   1.86699   1.87534   1.88023
 Alpha virt. eigenvalues --    1.88391   1.89485   1.89874   1.90214   1.90486
 Alpha virt. eigenvalues --    1.90906   1.90945   1.92296   1.92942   1.93881
 Alpha virt. eigenvalues --    1.94768   1.94910   1.95886   1.96169   1.96743
 Alpha virt. eigenvalues --    1.97246   1.97700   1.98014   1.99345   1.99568
 Alpha virt. eigenvalues --    2.00582   2.00688   2.01298   2.01454   2.02522
 Alpha virt. eigenvalues --    2.03020   2.03196   2.03727   2.04090   2.04328
 Alpha virt. eigenvalues --    2.04710   2.05432   2.05592   2.05915   2.06923
 Alpha virt. eigenvalues --    2.08109   2.08520   2.09264   2.09793   2.10213
 Alpha virt. eigenvalues --    2.10508   2.11089   2.11909   2.13782   2.14295
 Alpha virt. eigenvalues --    2.14859   2.15179   2.16019   2.16708   2.16905
 Alpha virt. eigenvalues --    2.17763   2.18403   2.18959   2.19097   2.19997
 Alpha virt. eigenvalues --    2.20503   2.20582   2.21002   2.21512   2.23011
 Alpha virt. eigenvalues --    2.23703   2.23877   2.24401   2.25418   2.26544
 Alpha virt. eigenvalues --    2.27221   2.29387   2.29617   2.30523   2.31188
 Alpha virt. eigenvalues --    2.31389   2.31925   2.32492   2.33985   2.34528
 Alpha virt. eigenvalues --    2.34934   2.36238   2.36589   2.36706   2.37302
 Alpha virt. eigenvalues --    2.37776   2.37976   2.38571   2.39064   2.39453
 Alpha virt. eigenvalues --    2.40204   2.40505   2.41723   2.42056   2.42712
 Alpha virt. eigenvalues --    2.44012   2.44923   2.45330   2.46124   2.46758
 Alpha virt. eigenvalues --    2.47763   2.48241   2.49945   2.50307   2.50620
 Alpha virt. eigenvalues --    2.53715   2.55213   2.56841   2.57124   2.59103
 Alpha virt. eigenvalues --    2.60408   2.60739   2.61455   2.63872   2.64479
 Alpha virt. eigenvalues --    2.65956   2.66217   2.66704   2.67276   2.67403
 Alpha virt. eigenvalues --    2.67957   2.68145   2.70886   2.70984   2.71393
 Alpha virt. eigenvalues --    2.71449   2.71505   2.71777   2.72109   2.72163
 Alpha virt. eigenvalues --    2.72497   2.72726   2.73984   2.74497   2.74590
 Alpha virt. eigenvalues --    2.75451   2.77376   2.79206   2.79452   2.79731
 Alpha virt. eigenvalues --    2.80235   2.80305   2.81131   2.81663   2.82068
 Alpha virt. eigenvalues --    2.84451   2.85559   2.86261   2.86795   2.86976
 Alpha virt. eigenvalues --    2.87640   2.89478   2.91239   2.92117   2.95307
 Alpha virt. eigenvalues --    2.95714   2.97465   2.97987   2.99099   3.01063
 Alpha virt. eigenvalues --    3.02864   3.04926   3.05929   3.06080   3.07447
 Alpha virt. eigenvalues --    3.07798   3.09425   3.09640   3.11647   3.12398
 Alpha virt. eigenvalues --    3.15403   3.16050   3.19130   3.19611   3.20476
 Alpha virt. eigenvalues --    3.20783   3.21011   3.22487   3.23068   3.24807
 Alpha virt. eigenvalues --    3.25863   3.30155   3.30974   3.32425   3.34251
 Alpha virt. eigenvalues --    3.37698   3.39549   3.41900   3.47123   3.48843
 Alpha virt. eigenvalues --    3.50563   3.50652   3.54955   3.58222   3.61777
 Alpha virt. eigenvalues --    3.62138   3.62945   3.63724   3.64383   3.65753
 Alpha virt. eigenvalues --    3.66408   3.67137   3.69602   3.71626   3.72315
 Alpha virt. eigenvalues --    3.75817   3.76908   3.77204   3.83380   3.83635
 Alpha virt. eigenvalues --    3.90505   3.94320   3.95475   4.00657   4.04406
 Alpha virt. eigenvalues --    4.14169
          Condensed to atoms (all electrons):
 Mulliken charges:
               1
     1  Mn  -0.657522
     2  C    0.339467
     3  O   -0.073103
     4  C    0.338031
     5  O   -0.075741
     6  C    0.305305
     7  N   -0.209529
     8  C   -0.039247
     9  C    0.038534
    10  C    0.092248
    11  H    0.061521
    12  H    0.054293
    13  N    0.079079
    14  C   -0.002375
    15  C   -0.155789
    16  C    0.027475
    17  C   -0.024458
    18  C    0.025194
    19  H    0.043769
    20  H    0.067043
    21  N   -0.206151
    22  C   -0.039288
    23  C    0.039912
    24  H    0.060267
    25  C    0.102567
    26  H    0.086184
    27  C    0.100331
    28  H    0.085314
    29  H    0.051508
    30  O   -0.093253
    31  C   -0.179169
    32  C   -0.084691
    33  C   -0.043953
    34  C    0.063235
    35  C   -0.066644
    36  C   -0.019056
    37  C   -0.019072
    38  C    0.015232
    39  C    0.080867
    40  H    0.035970
    41  H    0.043693
    42  H    0.032903
    43  C    0.081621
    44  C    0.015232
    45  C   -0.018690
    46  C   -0.019731
    47  C   -0.064585
    48  C    0.059683
    49  H    0.032843
    50  H    0.044073
    51  H    0.035408
    52  C   -0.046742
    53  H    0.054807
    54  C    0.092121
    55  H    0.060514
    56  H    0.060971
    57  C   -0.006211
    58  C   -0.021968
    59  H    0.052894
    60  H    0.058326
    61  Br  -0.817233
    62  H    0.022026
    63  H    0.043735
 Sum of Mulliken charges =  -0.00000
 Mulliken charges with hydrogens summed into heavy atoms:
               1
     1  Mn  -0.657522
     2  C    0.339467
     3  O   -0.073103
     4  C    0.338031
     5  O   -0.075741
     6  C    0.305305
     7  N   -0.209529
     8  C    0.022275
     9  C    0.092827
    10  C    0.153220
    13  N    0.079079
    14  C   -0.002375
    15  C   -0.155789
    16  C    0.071244
    17  C    0.027051
    18  C    0.092237
    21  N   -0.206151
    22  C    0.020979
    23  C    0.094719
    25  C    0.188752
    27  C    0.185646
    30  O   -0.093253
    31  C   -0.135434
    32  C   -0.062665
    33  C   -0.043953
    34  C    0.063235
    35  C   -0.030674
    36  C    0.024637
    37  C    0.013831
    38  C    0.015232
    39  C    0.080867
    43  C    0.081621
    44  C    0.015232
    45  C    0.014153
    46  C    0.024342
    47  C   -0.029177
    48  C    0.059683
    52  C   -0.046742
    54  C    0.152636
    57  C    0.052115
    58  C    0.030925
    61  Br  -0.817233
 Electronic spatial extent (au):  <R**2>=          23925.4737
 Charge=              0.0000 electrons
 Dipole moment (field-independent basis, Debye):
    X=             15.2426    Y=             14.9175    Z=              4.6208  Tot=             21.8224
 Quadrupole moment (field-independent basis, Debye-Ang):
   XX=           -281.9013   YY=           -252.3972   ZZ=           -225.7860
   XY=            -48.6765   XZ=            -15.8992   YZ=            -12.0965
 Traceless Quadrupole moment (field-independent basis, Debye-Ang):
   XX=            -28.5398   YY=              0.9643   ZZ=             27.5755
   XY=            -48.6765   XZ=            -15.8992   YZ=            -12.0965
 Octapole moment (field-independent basis, Debye-Ang**2):
  XXX=            336.1156  YYY=            125.8554  ZZZ=             30.9062  XYY=           -113.1433
  XXY=            204.2705  XXZ=             72.2464  XZZ=             26.6392  YZZ=             18.7940
  YYZ=             11.9344  XYZ=            -58.0418
 Hexadecapole moment (field-independent basis, Debye-Ang**3):
 XXXX=         -17378.1590 YYYY=          -6356.2345 ZZZZ=          -5925.4851 XXXY=           -896.6066
 XXXZ=           -339.0317 YYYX=           -418.6191 YYYZ=            279.0620 ZZZX=             44.6492
 ZZZY=           -254.1969 XXYY=          -4156.4989 XXZZ=          -3724.4074 YYZZ=          -2204.6199
 XXYZ=            -77.7715 YYXZ=           -178.6980 ZZXY=             18.2962
 N-N= 6.031113085440D+03 E-N=-2.489122648010D+04  KE= 5.399291200831D+03
 PrsmSu:  requested number of processors reduced to:  11 ShMem   1 Linda.
 D1PCM: PCM CHGder 1st derivatives, ID1Alg=3 FixD1E=F DoIter=F DoCFld=F I1PDM=0.
 CoulSu:  requested number of processors reduced to:  10 ShMem   1 Linda.
 CoulSu:  requested number of processors reduced to:  10 ShMem   1 Linda.
[...]
   D52       -3.05578   0.00016   0.00000   0.00401   0.00393  -3.05185
   D53       -3.07038   0.00007   0.00000   0.00003   0.00001  -3.07037
   D54        0.08474   0.00009   0.00000  -0.00025  -0.00028   0.08446
   D55        3.05202   0.00033   0.00000   0.01135   0.01136   3.06338
   D56       -0.12159  -0.00004   0.00000  -0.00874  -0.00888  -0.13047
   D57        2.99112  -0.00002   0.00000  -0.00230  -0.00250   2.98863
   D58        3.09490   0.00019   0.00000   0.05833   0.05840  -3.12988
   D59        3.12362  -0.00007   0.00000   0.00143   0.00132   3.12494
   D60       -0.00373  -0.00035   0.00000  -0.00455  -0.00470  -0.00843
   D61        0.00216  -0.00021   0.00000  -0.00698  -0.00701  -0.00485
   D62       -3.12518  -0.00049   0.00000  -0.01296  -0.01303  -3.13821
   D63        0.01364   0.00006   0.00000  -0.00175  -0.00167   0.01198
   D64       -3.12496   0.00003   0.00000  -0.00190  -0.00180  -3.12675
   D65        3.13434   0.00020   0.00000   0.00696   0.00697   3.14131
   D66       -0.00426   0.00017   0.00000   0.00682   0.00683   0.00257
   D67       -3.13823  -0.00000   0.00000   0.00140   0.00139  -3.13684
   D68        0.00185   0.00008   0.00000   0.00199   0.00200   0.00385
   D69       -0.01094   0.00027   0.00000   0.00735   0.00740  -0.00354
   D70        3.12914   0.00036   0.00000   0.00794   0.00801   3.13715
   D71       -1.10637  -0.00005   0.00000  -0.01827  -0.01839  -1.12476
   D72        2.04957  -0.00032   0.00000  -0.02425  -0.02443   2.02514
   D73       -0.00375   0.00008   0.00000   0.00309   0.00309  -0.00065
   D74        3.14076  -0.00004   0.00000   0.00013   0.00012   3.14088
   D75        3.13632   0.00017   0.00000   0.00369   0.00371   3.14003
   D76       -0.00236   0.00005   0.00000   0.00072   0.00074  -0.00162
   D77       -1.04287  -0.00001   0.00000   0.00221   0.00228  -1.04059
   D78       -0.03911  -0.00018   0.00000   0.00589   0.00585  -0.03326
   D79        2.09569   0.00002   0.00000   0.00235   0.00241   2.09809
   D80        3.09945  -0.00015   0.00000   0.00602   0.00597   3.10542
   D81        0.00237  -0.00001   0.00000  -0.00171  -0.00170   0.00066
   D82       -3.14114  -0.00002   0.00000  -0.00179  -0.00179   3.14026
   D83       -3.13623  -0.00004   0.00000  -0.00184  -0.00182  -3.13804
   D84        0.00346  -0.00005   0.00000  -0.00191  -0.00190   0.00155
   D85        0.80312  -0.00020   0.00000  -0.00105  -0.00104   0.80207
   D86        2.97758   0.00002   0.00000   0.00283   0.00283   2.98041
   D87       -0.13597  -0.00001   0.00000   0.00159   0.00158  -0.13439
   D88       -0.07181   0.00015   0.00000   0.00524   0.00525  -0.06656
   D89        3.09783   0.00011   0.00000   0.00400   0.00399   3.10182
   D90       -2.92803  -0.00001   0.00000  -0.00553  -0.00551  -2.93354
   D91        0.20660   0.00009   0.00000   0.00142   0.00143   0.20803
   D92        0.11709  -0.00013   0.00000  -0.00828  -0.00827   0.10882
   D93       -3.03147  -0.00003   0.00000  -0.00133  -0.00133  -3.03280
   D94       -3.11373  -0.00008   0.00000  -0.00442  -0.00442  -3.11815
   D95        0.02794  -0.00001   0.00000  -0.00263  -0.00263   0.02532
   D96        0.05529  -0.00001   0.00000  -0.00173  -0.00173   0.05357
   D97       -3.08622   0.00005   0.00000   0.00006   0.00007  -3.08615
   D98       -1.82737   0.00033   0.00000  -0.01392  -0.01383  -1.84120
   D99        1.28669   0.00027   0.00000  -0.01660  -0.01651   1.27018
   D100      -0.01222  -0.00007   0.00000  -0.00037  -0.00039  -0.01261
   D101       3.10031  -0.00003   0.00000   0.00094   0.00093   3.10123
   D102      -3.12687  -0.00000   0.00000   0.00226   0.00223  -3.12464
   D103      -0.01434   0.00004   0.00000   0.00356   0.00355  -0.01079
   D104       3.13333  -0.00006   0.00000  -0.00210  -0.00211   3.13122
   D105      -0.01511   0.00004   0.00000  -0.00091  -0.00089  -0.01601
   D106      -0.00835  -0.00012   0.00000  -0.00389  -0.00389  -0.01224
   D107       3.12640  -0.00003   0.00000  -0.00270  -0.00268   3.12372
   D108      -3.00309   0.00021   0.00000   0.00190   0.00191  -3.00119
   D109       0.12544   0.00017   0.00000   0.00291   0.00292   0.12836
   D110      -3.12137   0.00009   0.00000  -0.00099  -0.00099  -3.12236
   D111       0.00716   0.00006   0.00000   0.00001   0.00003   0.00719
   D112       0.11847   0.00008   0.00000   0.00376   0.00376   0.12223
   D113      -3.03618   0.00005   0.00000   0.00477   0.00477  -3.03141
   D114      -0.12555  -0.00017   0.00000  -0.00221  -0.00222  -0.12776
   D115       3.00041  -0.00030   0.00000  -0.00294  -0.00297   2.99745
   D116      -0.00700  -0.00004   0.00000   0.00065   0.00066  -0.00634
   D117       3.11896  -0.00017   0.00000  -0.00008  -0.00009   3.11887
   D118       3.03602  -0.00004   0.00000  -0.00409  -0.00408   3.03193
   D119      -0.12121  -0.00017   0.00000  -0.00482  -0.00483  -0.12604
   D120      -1.76806   0.00017   0.00000   0.07474   0.07479  -1.69327
   D121       1.48627   0.00029   0.00000   0.07755   0.07760   1.56387
   D122       3.11063  -0.00006   0.00000  -0.00126  -0.00126   3.10938
   D123      -0.04117  -0.00003   0.00000  -0.00137  -0.00136  -0.04253
   D124      -0.01570   0.00007   0.00000  -0.00116  -0.00114  -0.01685
   D125       3.11568   0.00010   0.00000  -0.00126  -0.00125   3.11443
   D126      -3.08725   0.00001   0.00000   0.00185   0.00186  -3.08540
   D127       0.04413   0.00004   0.00000   0.00175   0.00175   0.04588
   D128       0.04099   0.00004   0.00000   0.00217   0.00216   0.04316
   D129      -3.11002   0.00009   0.00000   0.00187   0.00187  -3.10815
   D130      -3.11575  -0.00008   0.00000   0.00205   0.00204  -3.11371
   D131       0.01642  -0.00003   0.00000   0.00175   0.00175   0.01816
   D132      -0.04436  -0.00004   0.00000  -0.00103  -0.00103  -0.04538
   D133       3.08781   0.00001   0.00000  -0.00132  -0.00132   3.08649
   D134       0.86243   0.00024   0.00000  -0.00057  -0.00053   0.86190
   D135      -2.30174   0.00014   0.00000  -0.00048  -0.00045  -2.30219
   D136      -2.29345   0.00023   0.00000  -0.00025  -0.00021  -2.29366
   D137       0.82557   0.00013   0.00000  -0.00017  -0.00013   0.82544
   D138       3.10335  -0.00019   0.00000  -0.00086  -0.00088   3.10247
   D139      -0.00155  -0.00012   0.00000  -0.00119  -0.00120  -0.00275
   D140      -0.01593  -0.00009   0.00000  -0.00097  -0.00098  -0.01690
   D141      -3.12083  -0.00001   0.00000  -0.00130  -0.00130  -3.12213
   D142       0.06871   0.00019   0.00000   0.00218   0.00221   0.07092
   D143      -3.05964   0.00022   0.00000   0.00115   0.00117  -3.05847
   D144      -3.09499   0.00009   0.00000   0.00221   0.00223  -3.09276
   D145       0.05985   0.00012   0.00000   0.00117   0.00119   0.06104
   D146      -0.02610  -0.00001   0.00000  -0.00037  -0.00037  -0.02647
   D147      -3.14050   0.00006   0.00000   0.00027   0.00027  -3.14022
   D148       3.07908  -0.00008   0.00000  -0.00003  -0.00004   3.07905
   D149      -0.03531  -0.00002   0.00000   0.00061   0.00060  -0.03471
   D150       0.02312   0.00006   0.00000   0.00139   0.00140   0.02452
   D151      -3.11120   0.00006   0.00000   0.00116   0.00116  -3.11004
   D152       3.13717  -0.00000   0.00000   0.00074   0.00075   3.13792
   D153       0.00285  -0.00000   0.00000   0.00051   0.00051   0.00336
   D154      -3.13073   0.00002   0.00000  -0.00111  -0.00112  -3.13185
   D155       0.02104  -0.00001   0.00000  -0.00100  -0.00101   0.02003
   D156       0.00371   0.00002   0.00000  -0.00088  -0.00089   0.00283
   D157      -3.12770  -0.00001   0.00000  -0.00078  -0.00078  -3.12847
   D158      -0.03972  -0.00007   0.00000  -0.00111  -0.00112  -0.04084
   D159       3.08910  -0.00010   0.00000  -0.00008  -0.00009   3.08901
   D160       3.09206  -0.00004   0.00000  -0.00123  -0.00124   3.09082
   D161      -0.06231  -0.00007   0.00000  -0.00020  -0.00021  -0.06251
   D162       0.03993   0.00008   0.00000  -0.00031  -0.00031   0.03962
   D163      -3.09256   0.00003   0.00000  -0.00003  -0.00003  -3.09259
   D164      -3.08651   0.00020   0.00000   0.00044   0.00045  -3.08605
   D165       0.06419   0.00015   0.00000   0.00072   0.00073   0.06493
   D166       3.09632  -0.00001   0.00000   0.00111   0.00112   3.09743
   D167      -0.07634  -0.00017   0.00000   0.00225   0.00223  -0.07411
   D168      -0.06109  -0.00013   0.00000   0.00037   0.00036  -0.06073
   D169       3.04944  -0.00030   0.00000   0.00150   0.00147   3.05091
   D170       3.12926  -0.00011   0.00000  -0.00089  -0.00090   3.12835
   D171      -0.00406  -0.00008   0.00000  -0.00084  -0.00084  -0.00490
   D172      -0.02174  -0.00006   0.00000  -0.00119  -0.00120  -0.02294
   D173       3.12813  -0.00003   0.00000  -0.00114  -0.00114   3.12699
   D174      -0.02454  -0.00004   0.00000   0.00070   0.00069  -0.02384
   D175      -3.13619   0.00003   0.00000   0.00015   0.00015  -3.13604
   D176       3.10862  -0.00007   0.00000   0.00064   0.00063   3.10925
   D177      -0.00303   0.00000   0.00000   0.00009   0.00009  -0.00295
   D178       0.02818   0.00006   0.00000   0.00043   0.00044   0.02862
   D179      -3.07557   0.00011   0.00000  -0.00024  -0.00023  -3.07579
   D180       3.14021  -0.00001   0.00000   0.00098   0.00097   3.14118
   D181       0.03647   0.00004   0.00000   0.00030   0.00031   0.03677
   D182       0.01533   0.00003   0.00000  -0.00097  -0.00097   0.01436
   D183      -3.09510   0.00020   0.00000  -0.00203  -0.00201  -3.09711
   D184       3.11879  -0.00002   0.00000  -0.00028  -0.00028   3.11851
   D185       0.00836   0.00016   0.00000  -0.00133  -0.00132   0.00704
   D186       2.31627   0.00030   0.00000   0.00426   0.00430   2.32057
   D187      -0.81822   0.00021   0.00000   0.00303   0.00305  -0.81517
   D188      -0.85687   0.00013   0.00000   0.00536   0.00538  -0.85149
   D189       2.29182   0.00004   0.00000   0.00412   0.00413   2.29595
   D190      -0.07399   0.00003   0.00000   0.00611   0.00609  -0.06790
   D191       3.07476  -0.00007   0.00000  -0.00102  -0.00103   3.07373
   D192       3.06087   0.00012   0.00000   0.00728   0.00728   3.06815
   D193      -0.07357   0.00002   0.00000   0.00014   0.00016  -0.07341
   D194       0.00162  -0.00012   0.00000  -0.00323  -0.00325  -0.00163
   D195      -3.13805  -0.00010   0.00000  -0.00316  -0.00316  -3.14122
   D196       3.14030  -0.00000   0.00000  -0.00027  -0.00028   3.14002
   D197       0.00063   0.00001   0.00000  -0.00020  -0.00019   0.00044
         Item               Value     Threshold  Converged?
 Maximum Force            0.001246     0.000450     NO 
 RMS     Force            0.000191     0.000300     YES
 Maximum Displacement     0.128368     0.001800     NO 
 RMS     Displacement     0.023300     0.001200     NO 
 Predicted change in Energy=-5.249775D-05
 GradGradGradGradGradGradGradGradGradGradGradGradGradGradGradGradGradGrad

 Stoichiometry    C34H21BrMnN3O3
 Framework group  C1[X(C34H21BrMnN3O3)]
 Deg. of freedom   183
 Full point group                 C1      NOp   1
 Largest Abelian subgroup         C1      NOp   1
 Largest concise Abelian subgroup C1      NOp   1
                         Standard orientation:                         
 ---------------------------------------------------------------------
 Center     Atomic      Atomic             Coordinates (Angstroms)
 Number     Number       Type             X           Y           Z
 ---------------------------------------------------------------------
      1         25           0       -2.120257   -1.204484   -0.462983
      2          6           0       -3.292829   -1.213773   -1.897731
      3          8           0       -3.955262   -1.283691   -2.821479
      4          6           0       -3.297201   -2.206098    0.558899
      5          8           0       -3.958294   -2.895369    1.179107
      6          6           0       -1.375199   -2.711361   -1.078779
      7          7           0       -0.857115   -1.076279    1.261566
      8          6           0       -0.545094   -0.261955    3.491417
      9          6           0        0.818322   -0.529810    3.422776
     10          6           0        0.437242   -1.415929    1.242136
     11          1           0       -0.988062    0.189942    4.378924
     12          1           0        1.477193   -0.270705    4.254149
     13          7           0       -2.416730    1.577079    0.711587
     14          6           0       -1.617556    2.375360    0.962121
     15          6           0       -0.523546    3.265122    1.226859
     16          6           0        0.775394    2.735819    1.182635
     17          6           0        1.864812    3.567349    1.413280
     18          6           0       -0.732661    4.622145    1.506928
     19          1           0        0.922522    1.679009    0.960410
     20          1           0       -1.746866    5.021894    1.538276
     21          7           0       -0.861483    0.103135   -1.585972
     22          6           0       -0.568499    2.262999   -2.576485
     23          6           0        0.798857    2.042596   -2.705912
     24          1           0       -1.022176    3.203914   -2.887283
     25          6           0       -1.345838   -0.538843    2.392300
     26          1           0       -2.409698   -0.301321    2.407350
     27          6           0       -1.361995    1.277078   -2.007512
     28          1           0       -2.430047    1.440146   -1.860489
     29          1           0        2.875543    3.157290    1.374636
     30          8           0       -0.876789   -3.665352   -1.471556
     31          6           0        2.885296   -0.337524   -0.100541
     32          6           0        5.517120   -1.147195   -0.451257
     33          6           0        1.340502   -1.129676    2.272957
     34          6           0        2.788679   -1.440738    2.126573
     35          6           0        3.467635   -2.107344    3.115319
     36          6           0        4.842851   -2.452616    2.966785
     37          6           0        5.518929   -2.155185    1.817660
     38          6           0        4.865163   -1.462185    0.748808
     39          6           0        3.495767   -1.066007    0.920423
     40          1           0        2.941489   -2.412200    4.023026
     41          1           0        5.344643   -2.984108    3.777445
     42          1           0        6.564408   -2.447031    1.695195
     43          6           0        3.491551   -0.105802   -1.335715
     44          6           0        4.859706   -0.502552   -1.507005
     45          6           0        5.511428   -0.215116   -2.749537
     46          6           0        4.832240    0.401348   -3.761320
     47          6           0        3.456480    0.743809   -3.611236
     48          6           0        2.781863    0.497720   -2.441596
     49          1           0        6.557164   -0.504807   -2.874901
     50          1           0        5.330590    0.614247   -4.708854
     51          1           0        2.924731    1.179428   -4.460264
     52          6           0        1.332218    0.809367   -2.319940
     53          1           0        1.452004    2.822611   -3.102627
     54          6           0        0.437808   -0.134112   -1.799901
     55          1           0        0.799988   -1.130069   -1.546334
     56          1           0        0.787975   -1.943696    0.355728
     57          6           0        1.659405    4.919885    1.691392
     58          6           0        0.366395    5.444027    1.738810
     59          1           0        0.212473    6.502187    1.956366
     60          1           0        2.515756    5.572240    1.873114
     61         35           0       -5.977136   -0.010413    0.011845
     62          1           0        6.566853   -1.423331   -0.577907
     63          1           0        1.888312    0.053841    0.063547
 ---------------------------------------------------------------------
 Rotational constants (GHZ):           0.1027416           0.0515306           0.0497227
 Basis read from rwf:  (5D, 7F)
 There are   802 symmetry adapted cartesian basis functions of A   symmetry.
 There are   751 symmetry adapted basis functions of A   symmetry.
   751 basis functions,  1339 primitive gaussians,   802 cartesian basis functions
   165 alpha electrons      165 beta electrons
       nuclear repulsion energy      5994.3597719828 Hartrees.
 NAtoms=   63 NActive=   63 NUniq=   63 SFac= 1.00D+00 NAtFMM=   60 NAOKFM=T Big=T
 Integral buffers will be    131072 words long.
 Raffenetti 2 integral format.
 Two-electron integral symmetry is turned on.
 Nuclear repulsion after empirical dispersion term =     5994.2895403090 Hartrees.
 ------------------------------------------------------------------------------
 Polarizable Continuum Model (PCM)
 =================================
 Model                : PCM.
 Atomic radii         : UFF (Universal Force Field).
 Polarization charges : Total charges.
 Charge compensation  : None.
 Solution method      : On-the-fly selection.
 Cavity type          : Scaled VdW (van der Waals Surface) (Alpha=1.100).
 Cavity algorithm     : GePol (No added spheres)
                        Default sphere list used, NSphG=   63.
                        Lebedev-Laikov grids with approx.  5.0 points / Ang**2.
                        Smoothing algorithm: York/Karplus (Gamma=1.0000).
                        Polarization charges: spherical gaussians, with
                                              point-specific exponents (IZeta= 3).
                        Self-potential: point-specific (ISelfS= 7).
                        Self-field    : sphere-specific E.n sum rule (ISelfD= 2).
 1st derivatives      : Analytical E(r).r(x)/FMM algorithm (CHGder, D1EAlg=3).
                        Cavity 1st derivative terms included.
 Solvent              : TetraHydroFuran, Eps=   7.425700 Eps(inf)=   1.974025
 ------------------------------------------------------------------------------
 One-electron integrals computed using PRISM.
 PrsmSu:  requested number of processors reduced to:  11 ShMem   1 Linda.
 NBasis=   751 RedAO= T EigKep=  2.20D-04  NBF=   751
 NBsUse=   751 1.00D-06 EigRej= -1.00D+00 NBFU=   751
 Initial guess from the checkpoint file:  "checkpoint.chk"
 B after Tr=    -0.000000    0.000000    0.000000
         Rot=    0.999882    0.015056    0.001010   -0.002945 Ang=   1.76 deg.
 ExpMin= 3.93D-02 ExpMax= 2.77D+05 ExpMxC= 1.70D+04 IAcc=3 IRadAn=         5 AccDes= 0.00D+00
 Harris functional with IExCor= 4639 and IRadAn=       5 diagonalized for initial guess.
 HarFok:  IExCor= 4639 AccDes= 0.00D+00 IRadAn=         5 IDoV= 1 UseB2=F ITyADJ=14
 ICtDFT=  3500011 ScaDFX=  1.000000  1.000000  1.000000  1.000000
 FoFCou: FMM=F IPFlag=           0 FMFlag=      100000 FMFlg1=        2001
         NFxFlg=           0 DoJE=T BraDBF=F KetDBF=T FulRan=T
         wScrn=  0.000000 ICntrl=       500 IOpCl=  0 I1Cent=   200000004 NGrid=           0
         NMat0=    1 NMatS0=      1 NMatT0=    0 NMatD0=    1 NMtDS0=    0 NMtDT0=    0
 Petite list used in FoFCou.
 Requested convergence on RMS density matrix=1.00D-08 within 128 cycles.
 Requested convergence on MAX density matrix=1.00D-06.
 Requested convergence on             energy=1.00D-06.
 No special actions if energy rises.
 CoulSu:  requested number of processors reduced to:  10 ShMem   1 Linda.
 Inv3:  Mode=1 IEnd=    67289088.
 Iteration    1 A*A^-1 deviation from unit magnitude is 3.55D-15 for   3811.
 Iteration    1 A*A^-1 deviation from orthogonality  is 2.22D-15 for   3926   2244.
 Iteration    1 A^-1*A deviation from unit magnitude is 3.55D-15 for   3817.
 Iteration    1 A^-1*A deviation from orthogonality  is 2.32D-15 for   2339   1915.
 CoulSu:  requested number of processors reduced to:  10 ShMem   1 Linda.
 CoulSu:  requested number of processors reduced to:  10 ShMem   1 Linda.
