 Entering Gaussian System, Link 0=g16
 Initial command:
 /home1/apps/gaussian/16rA.03/g16/l1.exe "/tmp/Gau-12811.inp" -scrdir="/tmp/"
 Entering Link 1 = /home1/apps/gaussian/16rA.03/g16/l1.exe PID=     12813.
  
 Copyright (c) 1988,1990,1992,1993,1995,1998,2003,2009,2016,
            Gaussian, Inc.  All Rights Reserved.
  
 This is part of the Gaussian(R) 16 program.  It is based on
 the Gaussian(R) 09 system (copyright 2009, Gaussian, Inc.),
 the Gaussian(R) 03 system (copyright 2003, Gaussian, Inc.),
 the Gaussian(R) 98 system (copyright 1998, Gaussian, Inc.),
 the Gaussian(R) 94 system (copyright 1995, Gaussian, Inc.),
 the Gaussian 92(TM) system (copyright 1992, Gaussian, Inc.),
 the Gaussian 90(TM) system (copyright 1990, Gaussian, Inc.),
 the Gaussian 88(TM) system (copyright 1988, Gaussian, Inc.),
 the Gaussian 86(TM) system (copyright 1986, Carnegie Mellon
 University), and the Gaussian 82(TM) system (copyright 1983,
 Carnegie Mellon University). Gaussian is a federally registered
 trademark of Gaussian, Inc.
  
 This software contains proprietary and confidential information,
 including trade secrets, belonging to Gaussian, Inc.
  
 This software is provided under written license and may be
 used, copied, transmitted, or stored only in accord with that
 written license.
  
 The following legend is applicable only to US Government
 contracts under FAR:
  
                    RESTRICTED RIGHTS LEGEND
  
 Use, reproduction and disclosure by the US Government is
 subject to restrictions as set forth in subparagraphs (a)
 and (c) of the Commercial Computer Software - Restricted
 Rights clause in FAR 52.227-19.
  
 Gaussian, Inc.
 340 Quinnipiac St., Bldg. 40, Wallingford CT 06492
  
  
 ---------------------------------------------------------------
 Warning -- This program may not be used in any manner that
 competes with the business of Gaussian, Inc. or will provide
 assistance to any competitor of Gaussian, Inc.  The licensee
 of this program is prohibited from giving any competitor of
 Gaussian, Inc. access to this program.  By using this program,
 the user acknowledges that Gaussian, Inc. is engaged in the
 business of creating and licensing software in the field of
 computational chemistry and represents and warrants to the
 licensee that it is not a competitor of Gaussian, Inc. and that
 it will not use this program in any manner prohibited above.
 ---------------------------------------------------------------
  

 Cite this work as:
 Gaussian 16, Revision A.03,
 M. J. Frisch, G. W. Trucks, H. B. Schlegel, G. E. Scuseria, 
 M. A. Robb, J. R. Cheeseman, G. Scalmani, V. Barone, 
 G. A. Petersson, H. Nakatsuji, X. Li, M. Caricato, A. V. Marenich, 
 J. Bloino, B. G. Janesko, R. Gomperts, B. Mennucci, H. P. Hratchian, 
 J. V. Ortiz, A. F. Izmaylov, J. L. Sonnenberg, D. Williams-Young, 
 F. Ding, F. Lipparini, F. Egidi, J. Goings, B. Peng, A. Petrone, 
 T. Henderson, D. Ranasinghe, V. G. Zakrzewski, J. Gao, N. Rega, 
 G. Zheng, W. Liang, M. Hada, M. Ehara, K. Toyota, R. Fukuda, 
 J. Hasegawa, M. Ishida, T. Nakajima, Y. Honda, O. Kitao, H. Nakai, 
 T. Vreven, K. Throssell, J. A. Montgomery, Jr., J. E. Peralta, 
 F. Ogliaro, M. J. Bearpark, J. J. Heyd, E. N. Brothers, K. N. Kudin, 
 V. N. Staroverov, T. A. Keith, R. Kobayashi, J. Normand, 
 K. Raghavachari, A. P. Rendell, J. C. Burant, S. S. Iyengar, 
 J. Tomasi, M. Cossi, J. M. Millam, M. Klene, C. Adamo, R. Cammi, 
 J. W. Ochterski, R. L. Martin, K. Morokuma, O. Farkas, 
 J. B. Foresman, and D. J. Fox, Gaussian, Inc., Wallingford CT, 2016.
 
 ******************************************
 Gaussian 16:  ES64L-G16RevA.03 25-Dec-2016
                17-Feb-2023 
 ******************************************
 %Chk=checkpoint.chk
 %NProcShared=12
 Will use up to   12 processors via shared memory.
 -----------------------------------------------------
 #wB97XD Gen Opt=(QST3) SCRF=(Solvent=TetraHydroFuran)
 -----------------------------------------------------
 1/5=1,18=20,26=3,27=203,38=1/1,3;
 2/9=110,12=2,17=6,18=5,40=1/2;
 3/5=7,11=2,25=1,30=1,70=2201,71=1,72=20,74=-58/1,2,3;
 4//1;
 5/5=2,38=5,53=20/2;
 6/7=2,8=2,9=2,10=2,28=1/1;
 7//1,2,3,16;
 1/5=1,18=20,26=3,27=203/3(2);
 2/9=110/2;
 99//99;
 2/9=110/2;
 3/5=7,6=1,11=2,25=1,30=1,70=2205,71=1,72=20,74=-58,82=7/1,2,3;
 4/5=5,16=3,69=1/1;
 5/5=2,38=5,53=20/2;
 7//1,2,3,16;
 1/5=1,18=20,26=3,27=203/3(-5);
 2/9=110/2;
 6/7=2,8=2,9=2,10=2,19=2,28=1/1;
 99/9=1/99;
 ------------------------------------
 Anthracene Transition State Reactant
 ------------------------------------
 Symbolic Z-matrix:
 Charge =  0 Multiplicity = 1
 Mn                   -1.0194   -0.13282  -1.30041 
 C                    -1.95084   1.09527  -2.29845 
 O                    -2.50101   1.87539  -2.92239 
 C                    -1.94096  -1.55093  -2.01671 
 O                    -2.47772  -2.45176  -2.46467 
 C                     0.20025  -0.27236  -2.6431 
 N                     0.04927  -1.53221  -0.03083 
 C                     0.07866  -3.04556   1.8282 
 C                     1.46702  -3.1228    1.77993 
 C                     1.37634  -1.67638  -0.11513 
 H                    -0.49205  -3.5931    2.57846 
 H                     2.01871  -3.71611   2.51212 
 N                    -2.37065   0.02942   0.19031 
 C                    -3.16697   0.13023   1.0198 
 C                    -4.10539   0.2658    2.09209 
 C                    -3.6202    0.43566   3.39952 
 C                    -4.52704   0.57079   4.44399 
 C                    -5.48203   0.23058   1.82486 
 H                    -2.54534   0.46071   3.58681 
 H                    -5.82775   0.09615   0.79488 
 N                     0.05018   1.50245  -0.35369 
 C                     0.08073   3.37421   1.14383 
 C                     1.47006   3.42805   1.09346 
 H                    -0.49002   4.07266   1.75603 
 C                    -0.58809  -2.23239   0.92237 
 H                    -1.67251  -2.14107   0.96102 
 C                    -0.58735   2.39419   0.42298 
 H                    -1.67305   2.32336   0.46813 
 H                    -4.16287   0.70328   5.46409 
 O                     0.94147  -0.36186  -3.51126 
 C                     3.71034   0.05692   0.59661 
 C                     6.44285   0.00195   0.07986 
 C                     2.14993  -2.41932   0.78562 
 C                     3.63318  -2.42875   0.67238 
 C                     4.33237  -3.60918   0.65808 
 C                     5.74721  -3.62943   0.48325 
 C                     6.44286  -2.47015   0.28898 
 C                     5.76733  -1.20725   0.29051 
 C                     4.35206  -1.18133   0.52939 
 H                     3.79554  -4.55679   0.74485 
 H                     6.26618  -4.58974   0.47691 
 H                     7.52231  -2.48926   0.12265 
 C                     4.35394   1.25516   0.28141 
 C                     5.76945   1.23001   0.04342 
 C                     6.44775   2.46555  -0.21061 
 C                     5.75436   3.64152  -0.25402 
 C                     4.33929   3.65908  -0.08147 
 C                     3.63726   2.50702   0.16895 
 H                     7.52743   2.44868  -0.37582 
 H                     6.27529   4.58008  -0.45221 
 H                     3.80437   4.6056   -0.18931 
 C                     2.15352   2.52607   0.2752 
 H                     2.02229   4.15802   1.68899 
 C                     1.37923   1.61496  -0.45427 
 H                     1.87683   0.94259  -1.1522 
 H                     1.87309  -1.17143  -0.94303 
 C                    -5.89955   0.53687   4.18594 
 C                    -6.37363   0.36773   2.88435 
 H                    -7.44706   0.34214   2.68994 
 H                    -6.60706   0.64379   5.01079 
 Br                   -5.87537  -0.28615  -1.89241 
 H                     7.52454  -0.01473  -0.07653 
 H                     2.66679   0.08836   0.89635 
 
 Add virtual bond connecting atoms Br61       and H20        Dist= 5.13D+00.
 -----------------------------------
 Anthracene Transition State Product
 -----------------------------------
 Symbolic Z-matrix:
 Charge =  0 Multiplicity = 1
 Mn                   -1.44286   0.16026  -2.01412 
 C                    -2.20443   1.54882  -2.90891 
 O                    -2.68366   2.42731  -3.46349 
 C                    -2.21304  -1.07612  -3.10367 
 O                    -2.69804  -1.85971  -3.78172 
 C                    -0.01408   0.23546  -3.09485 
 N                    -0.60049  -1.44099  -0.81185 
 C                    -0.82342  -3.27125   0.71581 
 C                     0.55737  -3.36677   0.85296 
 C                     0.7252   -1.5913   -0.72767 
 H                    -1.48955  -3.94449   1.25661 
 H                     1.00241  -4.09964   1.52935 
 N                     0.0775   -0.17244   2.4041 
 C                    -1.05369  -0.19765   2.64732 
 C                    -2.45976  -0.23136   2.94445 
 C                    -3.12645  -1.4621    3.01383 
 C                    -4.49389  -1.48788   3.26678 
 C                    -3.15853   0.96659   3.1448 
 H                    -2.5722   -2.38909   2.86463 
 H                    -2.62937   1.91849   3.09601 
 N                    -0.59083   1.56154  -0.58857 
 C                    -0.80429   3.1413    1.19825 
 C                     0.5769    3.20654   1.34817 
 H                    -1.46646   3.7285    1.83564 
 C                    -1.3638   -2.28301  -0.09733 
 H                    -2.44255  -2.14076  -0.17604 
 C                    -1.34964   2.291     0.24463 
 H                    -2.42913   2.16919   0.14486 
 H                    -5.01736  -2.44419   3.31559 
 O                     0.86165   0.2873   -3.83871 
 C                     2.91235  -0.04746   0.58557 
 C                     5.69235  -0.04273   0.41158 
 C                     1.36924  -2.49754   0.12252 
 C                     2.85402  -2.5063    0.21569 
 C                     3.56205  -3.67493   0.08887 
 C                     4.98786  -3.68132   0.09599 
 C                     5.69088  -2.51399   0.19056 
 C                     5.00769  -1.26191   0.32192 
 C                     3.57322  -1.26107   0.38259 
 H                     3.02896  -4.61681  -0.06081 
 H                     5.51371  -4.63251  -0.00729 
 H                     6.783    -2.51728   0.16154 
 C                     3.58071   1.17889   0.56648 
 C                     5.01522   1.18024   0.5065 
 C                     5.70587   2.43375   0.56536 
 C                     5.00976   3.60611   0.64834 
 C                     3.58394   3.60941   0.64 
 C                     2.86897   2.43926   0.58848 
 H                     6.79801   2.43509   0.53708 
 H                     5.54131   4.55882   0.69009 
 H                     3.05653   4.56629   0.63458 
 C                     1.38429   2.45343   0.49431 
 H                     1.02578   3.82526   2.12808 
 C                     0.73572   1.68987  -0.48314 
 H                     1.34033   1.15471  -1.214 
 H                     1.33286  -0.9558   -1.37019 
 C                    -5.19354  -0.29487   3.45284 
 C                    -4.52569   0.92909   3.39758 
 H                    -5.07398   1.86057   3.54798 
 H                    -6.26798  -0.31941   3.64516 
 Br                   -3.72263   0.07153  -0.71897 
 H                     1.84487  -0.05936   0.78995 
 H                     6.78538  -0.04496   0.39399 
 
 Add virtual bond connecting atoms N7         and Mn1        Dist= 4.11D+00.
 Add virtual bond connecting atoms N21        and Mn1        Dist= 4.11D+00.
 Add virtual bond connecting atoms H11        and H19        Dist= 4.70D+00.
 Add virtual bond connecting atoms H24        and H20        Dist= 4.71D+00.
 Add virtual bond connecting atoms H62        and N13        Dist= 4.53D+00.
 -----------------------------------------
 Anthracene Transition State Initial Guess
 -----------------------------------------
 Symbolic Z-matrix:
 Charge =  0 Multiplicity = 1
 Mn                   -1.14595  -0.05062  -1.48333 
 C                    -1.8764    1.26628  -2.54474 
 O                    -2.08351   2.16677  -3.22591 
 C                    -1.95265  -1.54377  -2.20721 
 O                    -2.21602  -2.56674  -2.65599 
 C                     0.07998  -0.23344  -2.77317 
 N                    -0.10521  -1.55275  -0.16817 
 C                    -0.16917  -3.08355   1.67437 
 C                     1.22075  -3.10988   1.73319 
 C                     1.22579  -1.65634  -0.16054 
 H                    -0.77624  -3.65921   2.37544 
 H                     1.73526  -3.68818   2.50522 
 N                    -2.26936   0.16295   0.24635 
 C                    -2.92183   0.2055    1.19543 
 C                    -3.82294   0.2209    2.31162 
 C                    -3.33111   0.17689   3.62342 
 C                    -4.23235   0.1665    4.68297 
 C                    -5.20179   0.25478   2.05407 
 H                    -2.25405   0.14776   3.80235 
 H                    -5.55363   0.28589   1.01955 
 N                    -0.03722   1.63547  -0.56604 
 C                    -0.00578   3.58112   0.82986 
 C                     1.38571   3.57458   0.84893 
 H                    -0.57504   4.33555   1.3757 
 C                    -0.78982  -2.28895   0.71967 
 H                    -1.87846  -2.2393    0.66656 
 C                    -0.67658   2.58954   0.12674 
 H                    -1.76742   2.55571   0.11793 
 H                    -3.86127   0.13028   5.70975 
 O                     0.83243  -0.34866  -3.63965 
 C                     3.55762   0.09541   0.58927 
 C                     6.31874  -0.01669   0.25478 
 C                     1.95386  -2.38585   0.78961 
 C                     3.44379  -2.39086   0.77021 
 C                     4.13249  -3.5744    0.85191 
 C                     5.55678  -3.61578   0.77344 
 C                     6.27565  -2.47333   0.57562 
 C                     5.61241  -1.20559   0.47611 
 C                     4.18482  -1.15343   0.61952 
 H                     3.58171  -4.51448   0.9432 
 H                     6.06367  -4.58123   0.84516 
 H                     7.36462  -2.50506   0.48307 
 C                     4.24145   1.27329   0.27446 
 C                     5.66808   1.21665   0.12364 
 C                     6.38772   2.42758  -0.14535 
 C                     5.72293   3.61121  -0.28098 
 C                     4.29995   3.66199  -0.18399 
 C                     3.55907   2.53744   0.07584 
 H                     7.4753    2.37988  -0.24667 
 H                     6.27281   4.53157  -0.49222 
 H                     3.79217   4.61513  -0.35505 
 C                     2.07096   2.60564   0.11185 
 H                     1.9383    4.31327   1.43529 
 C                     1.29605   1.69001  -0.61176 
 H                     1.79199   0.96626  -1.25991 
 H                     1.76063  -1.13447  -0.95512 
 C                    -5.60576   0.19953   4.43383 
 C                    -6.08945   0.24416   3.12502 
 H                    -7.16526   0.26841   2.93726 
 H                    -6.30783   0.18883   5.27151 
 Br                   -4.13781  -0.02845  -2.00079 
 H                     7.4083   -0.05504   0.16581 
 H                     2.49448   0.15079   0.8098 
 

 GradGradGradGradGradGradGradGradGradGradGradGradGradGradGradGradGradGrad
 Berny optimization.
 Initialization pass.
                           ----------------------------
                           !    Initial Parameters    !
                           ! (Angstroms and Degrees)  !
 --------------------------                            --------------------------
 ! Name  Definition         TS        Reactant Product Derivative Info.         !
 --------------------------------------------------------------------------------
 ! R1    R(1,2)             1.8424    1.8363    1.819  estimate D2E/DX2         !
 ! R2    R(1,4)             1.8451    1.8367    1.819  estimate D2E/DX2         !
 ! R3    R(1,6)             1.7889    1.8193    1.7931 estimate D2E/DX2         !
 ! R4    R(1,7)             2.2515    2.1708    2.1723 estimate D2E/DX2         !
 ! R5    R(1,13)            2.0735    2.0185    4.6843 estimate D2E/DX2         !
 ! R6    R(1,21)            2.2167    2.1713    2.173  estimate D2E/DX2         !
 ! R7    R(1,61)            3.0364    4.8943    2.6235 estimate D2E/DX2         !
 ! R8    R(2,3)             1.1479    1.1404    1.1441 estimate D2E/DX2         !
 ! R9    R(4,5)             1.1477    1.1403    1.1441 estimate D2E/DX2         !
 ! R10   R(6,30)            1.1534    1.145     1.1502 estimate D2E/DX2         !
 ! R11   R(7,10)            1.335     1.3375    1.3368 estimate D2E/DX2         !
 ! R12   R(7,25)            1.3412    1.3435    1.3425 estimate D2E/DX2         !
 ! R13   R(8,9)             1.3914    1.3913    1.3909 estimate D2E/DX2         !
 ! R14   R(8,11)            1.0915    1.0901    1.0906 estimate D2E/DX2         !
 ! R15   R(8,25)            1.3885    1.3879    1.3892 estimate D2E/DX2         !
 ! R16   R(9,12)            1.0932    1.092     1.0921 estimate D2E/DX2         !
 ! R17   R(9,33)            1.3972    1.3964    1.3958 estimate D2E/DX2         !
 ! R18   R(10,33)           1.4018    1.4006    1.3996 estimate D2E/DX2         !
 ! R19   R(10,56)           1.0908    1.0896    1.089  estimate D2E/DX2         !
 ! R20   R(11,19)           4.3259    4.6547    2.4854 estimate D2E/DX2         !
 ! R21   R(13,14)           1.1525    1.1543    1.1573 estimate D2E/DX2         !
 ! R22   R(13,62)           9.6804    9.8989    2.3962 estimate D2E/DX2         !
 ! R23   R(14,15)           1.4346    1.4314    1.4375 estimate D2E/DX2         !
 ! R24   R(15,16)           1.4017    1.4049    1.4014 estimate D2E/DX2         !
 ! R25   R(15,18)           1.4031    1.4028    1.4013 estimate D2E/DX2         !
 ! R26   R(16,17)           1.391     1.3898    1.3909 estimate D2E/DX2         !
 ! R27   R(16,19)           1.0922    1.0913    1.0903 estimate D2E/DX2         !
 ! R28   R(17,29)           1.0924    1.0912    1.0913 estimate D2E/DX2         !
 ! R29   R(17,57)           1.3962    1.397     1.3955 estimate D2E/DX2         !
 ! R30   R(18,20)           1.0932    1.0947    1.0902 estimate D2E/DX2         !
 ! R31   R(18,58)           1.391     1.3915    1.3908 estimate D2E/DX2         !
 ! R32   R(20,24)           6.4275    6.7252    2.4934 estimate D2E/DX2         !
 ! R33   R(20,61)           3.3505    2.7148    4.3773 estimate D2E/DX2         !
 ! R34   R(21,27)           1.3413    1.3435    1.3424 estimate D2E/DX2         !
 ! R35   R(21,54)           1.3352    1.3376    1.3369 estimate D2E/DX2         !
 ! R36   R(22,23)           1.3916    1.3913    1.3908 estimate D2E/DX2         !
 ! R37   R(22,24)           1.0914    1.0901    1.0907 estimate D2E/DX2         !
 ! R38   R(22,27)           1.3884    1.3879    1.3892 estimate D2E/DX2         !
 ! R39   R(23,52)           1.397     1.3965    1.3958 estimate D2E/DX2         !
 ! R40   R(23,53)           1.0931    1.092     1.092  estimate D2E/DX2         !
 ! R41   R(25,26)           1.0911    1.0889    1.0909 estimate D2E/DX2         !
 ! R42   R(27,28)           1.0914    1.0889    1.0909 estimate D2E/DX2         !
 ! R43   R(31,39)           1.3978    1.3963    1.3967 estimate D2E/DX2         !
 ! R44   R(31,43)           1.3979    1.3962    1.3968 estimate D2E/DX2         !
 ! R45   R(31,62)           3.8768    3.8738    1.0869 estimate D2E/DX2         !
 ! R46   R(31,63)           1.0872    1.0862    3.8778 estimate D2E/DX2         !
 ! R47   R(32,38)           1.4005    1.401     1.4011 estimate D2E/DX2         !
 ! R48   R(32,44)           1.4006    1.401     1.4011 estimate D2E/DX2         !
 ! R49   R(32,62)           1.0939    1.0931    3.8661 estimate D2E/DX2         !
 ! R50   R(32,63)           3.868     3.8643    1.0932 estimate D2E/DX2         !
 ! R51   R(33,34)           1.4901    1.4876    1.4877 estimate D2E/DX2         !
 ! R52   R(34,35)           1.3718    1.372     1.3723 estimate D2E/DX2         !
 ! R53   R(34,39)           1.4502    1.4468    1.4477 estimate D2E/DX2         !
 ! R54   R(35,36)           1.427     1.4257    1.4258 estimate D2E/DX2         !
 ! R55   R(35,40)           1.0934    1.0926    1.0926 estimate D2E/DX2         !
 ! R56   R(36,37)           1.3642    1.3659    1.366  estimate D2E/DX2         !
 ! R57   R(36,41)           1.0928    1.0916    1.0918 estimate D2E/DX2         !
 ! R58   R(37,38)           1.4342    1.4322    1.4324 estimate D2E/DX2         !
 ! R59   R(37,42)           1.0934    1.0924    1.0925 estimate D2E/DX2         !
 ! R60   R(38,39)           1.4357    1.4355    1.4358 estimate D2E/DX2         !
 ! R61   R(43,44)           1.4357    1.4356    1.4358 estimate D2E/DX2         !
 ! R62   R(43,48)           1.4502    1.4469    1.4476 estimate D2E/DX2         !
 ! R63   R(44,45)           1.4341    1.4322    1.4324 estimate D2E/DX2         !
 ! R64   R(45,46)           1.3643    1.3659    1.366  estimate D2E/DX2         !
 ! R65   R(45,49)           1.0933    1.0924    1.0925 estimate D2E/DX2         !
 ! R66   R(46,47)           1.4272    1.4257    1.4258 estimate D2E/DX2         !
 ! R67   R(46,50)           1.0927    1.0916    1.0918 estimate D2E/DX2         !
 ! R68   R(47,48)           1.3715    1.3722    1.3723 estimate D2E/DX2         !
 ! R69   R(47,51)           1.0934    1.0926    1.0926 estimate D2E/DX2         !
 ! R70   R(48,52)           1.4901    1.4877    1.4877 estimate D2E/DX2         !
 ! R71   R(52,54)           1.4009    1.4006    1.3997 estimate D2E/DX2         !
 ! R72   R(54,55)           1.0908    1.0894    1.0891 estimate D2E/DX2         !
 ! R73   R(57,58)           1.396     1.3955    1.3954 estimate D2E/DX2         !
 ! R74   R(57,60)           1.093     1.092     1.0918 estimate D2E/DX2         !
 ! R75   R(58,59)           1.0923    1.0912    1.0913 estimate D2E/DX2         !
 ! A1    A(2,1,4)         100.3159   92.8602   92.6906 estimate D2E/DX2         !
 ! A2    A(2,1,6)          85.9492   89.4398   90.2928 estimate D2E/DX2         !
 ! A3    L(2,1,7,4,-1)    184.0789  181.5632  182.3854 estimate D2E/DX2         !
 ! A4    L(2,1,7,4,-2)    177.6884  182.4131  183.4865 estimate D2E/DX2         !
 ! A5    A(2,1,13)        101.0783   90.4629  130.8496 estimate D2E/DX2         !
 ! A6    A(2,1,21)         83.8585   89.035    89.6911 estimate D2E/DX2         !
 ! A7    A(2,1,61)         60.3922   56.7659   84.5395 estimate D2E/DX2         !
 ! A8    A(4,1,6)          86.2177   89.3883   90.279  estimate D2E/DX2         !
 ! A9    A(4,1,7)          83.763    88.703    89.6949 estimate D2E/DX2         !
 ! A10   A(4,1,13)        100.0061   90.8132  130.8505 estimate D2E/DX2         !
 ! A11   L(4,1,21,2,-1)   184.1745  181.8953  182.3816 estimate D2E/DX2         !
 ! A12   L(4,1,21,2,-2)   182.2317  177.8035  176.5025 estimate D2E/DX2         !
 ! A13   A(4,1,61)         60.5435   55.3068   84.5361 estimate D2E/DX2         !
 ! A14   A(6,1,7)          92.0752   92.9897   93.1816 estimate D2E/DX2         !
 ! A15   L(6,1,13,2,-1)   187.0275  179.9027  221.1424 estimate D2E/DX2         !
 ! A16   L(6,1,13,2,-2)   187.856   180.197   245.2912 estimate D2E/DX2         !
 ! A17   A(6,1,21)         91.9103   92.827    93.2059 estimate D2E/DX2         !
 ! A18   L(6,1,61,2,-1)   146.3414  146.2057  174.8323 estimate D2E/DX2         !
 ! A19   L(6,1,61,2,-2)   132.6909  133.7926  174.5395 estimate D2E/DX2         !
 ! A20   A(7,1,13)         80.3222   87.1023   45.5557 estimate D2E/DX2         !
 ! A21   A(7,1,21)         91.98     89.3121   87.7196 estimate D2E/DX2         !
 ! A22   A(7,1,61)        124.0485  122.615    92.2245 estimate D2E/DX2         !
 ! A23   A(13,1,21)        81.2253   86.9744   45.554  estimate D2E/DX2         !
 ! A24   A(21,1,61)       123.905   124.4079   92.2164 estimate D2E/DX2         !
 ! A25   L(1,2,3,18,-1)   189.5871  181.2299  179.5621 estimate D2E/DX2         !
 ! A26   L(1,2,3,22,-1)   173.4402  179.0518  179.5279 estimate D2E/DX2         !
 ! A27   L(1,2,3,18,-2)   170.1185  178.8291  179.7608 estimate D2E/DX2         !
 ! A28   L(1,2,3,22,-2)   168.5119  178.5473  180.1171 estimate D2E/DX2         !
 ! A29   L(1,4,5,8,-1)    173.5607  178.9781  179.5473 estimate D2E/DX2         !
 ! A30   L(1,4,5,8,-2)    191.2772  181.8662  179.8672 estimate D2E/DX2         !
 ! A31   L(1,6,30,10,-1)  182.274   181.4747  182.6714 estimate D2E/DX2         !
 ! A32   L(1,6,30,10,-2)  178.7507  178.99    178.0594 estimate D2E/DX2         !
 ! A33   A(1,7,10)        121.0612  121.4044  120.1501 estimate D2E/DX2         !
 ! A34   A(1,7,25)        121.1263  121.1552  122.4403 estimate D2E/DX2         !
 ! A35   A(10,7,25)       117.5491  117.3369  117.3751 estimate D2E/DX2         !
 ! A36   A(9,8,11)        121.2273  121.2244  121.0019 estimate D2E/DX2         !
 ! A37   A(9,8,25)        119.1038  119.2911  119.5213 estimate D2E/DX2         !
 ! A38   A(11,8,25)       119.658   119.4687  119.4588 estimate D2E/DX2         !
 ! A39   A(8,9,12)        120.6631  120.7321  120.7784 estimate D2E/DX2         !
 ! A40   A(8,9,33)        119.065   118.9955  118.8861 estimate D2E/DX2         !
 ! A41   A(12,9,33)       120.2719  120.2701  120.331  estimate D2E/DX2         !
 ! A42   A(7,10,33)       124.1985  124.3771  124.5675 estimate D2E/DX2         !
 ! A43   A(7,10,56)       116.5874  116.7619  116.7806 estimate D2E/DX2         !
 ! A44   A(33,10,56)      119.2139  118.8603  118.6518 estimate D2E/DX2         !
 ! A45   A(8,11,19)        86.4297   86.7094  101.5699 estimate D2E/DX2         !
 ! A46   L(1,13,14,8,-1)  177.9377  181.4217  143.4264 estimate D2E/DX2         !
 ! A47   L(1,13,14,8,-2)  183.5275  180.9146  272.8095 estimate D2E/DX2         !
 ! A48   A(14,13,62)      125.005   135.1856  149.7131 estimate D2E/DX2         !
 ! A49   L(13,14,15,11,-1)  181.0751  178.6485  179.8378 estimate D2E/DX2       !
 ! A50   L(13,14,15,1,-1)  175.9666  179.3423  179.8053 estimate D2E/DX2        !
 ! A51   L(13,14,15,11,-2)  184.548  177.655  180.1544 estimate D2E/DX2         !
 ! A52   L(13,14,15,1,-2)  212.2791  323.0409  179.8888 estimate D2E/DX2        !
 ! A53   A(14,15,16)      120.4924  118.8297  119.745  estimate D2E/DX2         !
 ! A54   A(14,15,18)      118.3402  119.8879  119.8197 estimate D2E/DX2         !
 ! A55   A(16,15,18)      121.156   121.2822  120.4296 estimate D2E/DX2         !
 ! A56   A(15,16,17)      119.0627  119.0657  119.537  estimate D2E/DX2         !
 ! A57   A(15,16,19)      120.0123  120.1746  119.8713 estimate D2E/DX2         !
 ! A58   A(17,16,19)      120.9247  120.7597  120.591  estimate D2E/DX2         !
 ! A59   A(16,17,29)      119.7437  119.7748  119.7337 estimate D2E/DX2         !
 ! A60   A(16,17,57)      120.0804  119.9927  120.0872 estimate D2E/DX2         !
 ! A61   A(29,17,57)      120.1759  120.2326  120.1787 estimate D2E/DX2         !
 ! A62   A(15,18,20)      119.3857  119.4873  119.8693 estimate D2E/DX2         !
 ! A63   A(15,18,58)      119.0512  118.7694  119.546  estimate D2E/DX2         !
 ! A64   A(20,18,58)      121.5628  121.7433  120.5838 estimate D2E/DX2         !
 ! A65   A(11,19,16)      107.8375  112.1661  147.3575 estimate D2E/DX2         !
 ! A66   A(18,20,24)       73.5128   62.7598  151.9875 estimate D2E/DX2         !
 ! A67   A(18,20,61)      135.5969  162.5838   63.2149 estimate D2E/DX2         !
 ! A68   A(1,21,27)       121.089   121.2128  122.409  estimate D2E/DX2         !
 ! A69   A(1,21,54)       121.0887  121.3339  120.1792 estimate D2E/DX2         !
 ! A70   A(27,21,54)      117.6877  117.3326  117.3719 estimate D2E/DX2         !
 ! A71   A(23,22,24)      121.193   121.2226  120.9754 estimate D2E/DX2         !
 ! A72   A(23,22,27)      119.1234  119.2873  119.5087 estimate D2E/DX2         !
 ! A73   A(24,22,27)      119.6674  119.4755  119.497  estimate D2E/DX2         !
 ! A74   A(22,23,52)      119.1093  119.0084  118.8945 estimate D2E/DX2         !
 ! A75   A(22,23,53)      120.6409  120.7383  120.7806 estimate D2E/DX2         !
 ! A76   A(52,23,53)      120.2492  120.2517  120.3201 estimate D2E/DX2         !
 ! A77   A(20,24,22)       86.6045   87.5038  100.821  estimate D2E/DX2         !
 ! A78   A(7,25,8)        122.7576  122.7164  122.4501 estimate D2E/DX2         !
 ! A79   A(7,25,26)       116.8781  116.9941  116.2352 estimate D2E/DX2         !
 ! A80   A(8,25,26)       120.3641  120.2893  121.3081 estimate D2E/DX2         !
 ! A81   A(21,27,22)      122.6352  122.7187  122.4637 estimate D2E/DX2         !
 ! A82   A(21,27,28)      116.7583  116.996   116.2248 estimate D2E/DX2         !
 ! A83   A(22,27,28)      120.6064  120.2851  121.3045 estimate D2E/DX2         !
 ! A84   A(39,31,43)      122.5603  122.5723  122.3093 estimate D2E/DX2         !
 ! A85   A(39,31,62)       61.4466   61.4914  118.8492 estimate D2E/DX2         !
 ! A86   A(39,31,63)      118.6786  118.7182   61.3666 estimate D2E/DX2         !
 ! A87   A(43,31,62)       61.4595   61.4953  118.8238 estimate D2E/DX2         !
 ! A88   A(43,31,63)      118.7583  118.7067   61.3697 estimate D2E/DX2         !
 ! A89   A(38,32,44)      121.873   121.9166  121.8486 estimate D2E/DX2         !
 ! A90   A(38,32,62)      119.0423  119.0443   61.0678 estimate D2E/DX2         !
 ! A91   A(38,32,63)       61.0159   61.0778  119.0633 estimate D2E/DX2         !
 ! A92   A(44,32,62)      119.0772  119.0318   61.0645 estimate D2E/DX2         !
 ! A93   A(44,32,63)       61.0528   61.068   119.0833 estimate D2E/DX2         !
 ! A94   A(9,33,10)       117.0596  117.0675  116.9662 estimate D2E/DX2         !
 ! A95   A(9,33,34)       122.1223  122.5908  122.9607 estimate D2E/DX2         !
 ! A96   A(10,33,34)      120.8143  120.3387  120.073  estimate D2E/DX2         !
 ! A97   A(33,34,35)      120.2738  120.9546  120.9417 estimate D2E/DX2         !
 ! A98   A(33,34,39)      120.6257  119.8331  119.8661 estimate D2E/DX2         !
 ! A99   A(35,34,39)      119.0678  119.1791  119.1341 estimate D2E/DX2         !
 ! A100  A(34,35,36)      121.522   121.2786  121.2856 estimate D2E/DX2         !
 ! A101  A(34,35,40)      119.5966  119.6689  119.674  estimate D2E/DX2         !
 ! A102  A(36,35,40)      118.8444  119.0134  118.9947 estimate D2E/DX2         !
 ! A103  A(35,36,37)      120.6382  120.7171  120.7422 estimate D2E/DX2         !
 ! A104  A(35,36,41)      119.01    119.0123  119.0173 estimate D2E/DX2         !
 ! A105  A(37,36,41)      120.3283  120.2457  120.2125 estimate D2E/DX2         !
 ! A106  A(36,37,38)      120.4386  120.5328  120.5232 estimate D2E/DX2         !
 ! A107  A(36,37,42)      120.8507  120.6705  120.6689 estimate D2E/DX2         !
 ! A108  A(38,37,42)      118.7093  118.7953  118.8069 estimate D2E/DX2         !
 ! A109  A(32,38,37)      121.8782  122.24    122.2362 estimate D2E/DX2         !
 ! A110  A(32,38,39)      119.1066  118.9991  119.0121 estimate D2E/DX2         !
 ! A111  A(37,38,39)      119.0128  118.758   118.7457 estimate D2E/DX2         !
 ! A112  A(31,39,34)      122.3653  122.1059  121.9443 estimate D2E/DX2         !
 ! A113  A(31,39,38)      118.4536  118.4984  118.6455 estimate D2E/DX2         !
 ! A114  A(34,39,38)      119.1747  119.389   119.4053 estimate D2E/DX2         !
 ! A115  A(31,43,44)      118.4571  118.4837  118.6513 estimate D2E/DX2         !
 ! A116  A(31,43,48)      122.3546  122.1247  121.9344 estimate D2E/DX2         !
 ! A117  A(44,43,48)      119.1809  119.3848  119.4097 estimate D2E/DX2         !
 ! A118  A(32,44,43)      119.1128  119.0099  119.0034 estimate D2E/DX2         !
 ! A119  A(32,44,45)      121.8705  122.2187  122.2494 estimate D2E/DX2         !
 ! A120  A(43,44,45)      119.0143  118.7686  118.7409 estimate D2E/DX2         !
 ! A121  A(44,45,46)      120.4442  120.528   120.5213 estimate D2E/DX2         !
 ! A122  A(44,45,49)      118.6667  118.7904  118.817  estimate D2E/DX2         !
 ! A123  A(46,45,49)      120.8874  120.6802  120.6609 estimate D2E/DX2         !
 ! A124  A(45,46,47)      120.6609  120.7068  120.7457 estimate D2E/DX2         !
 ! A125  A(45,46,50)      120.3135  120.2507  120.209  estimate D2E/DX2         !
 ! A126  A(47,46,50)      119.006   119.0168  119.0169 estimate D2E/DX2         !
 ! A127  A(46,47,48)      121.4866  121.3037  121.2822 estimate D2E/DX2         !
 ! A128  A(46,47,51)      118.9084  118.9924  118.9961 estimate D2E/DX2         !
 ! A129  A(48,47,51)      119.5721  119.663   119.6765 estimate D2E/DX2         !
 ! A130  A(43,48,47)      119.1106  119.1567  119.1323 estimate D2E/DX2         !
 ! A131  A(43,48,52)      120.4303  119.9705  119.8668 estimate D2E/DX2         !
 ! A132  A(47,48,52)      120.4324  120.8346  120.9443 estimate D2E/DX2         !
 ! A133  A(23,52,48)      122.299   122.5636  122.9353 estimate D2E/DX2         !
 ! A134  A(23,52,54)      117.0346  117.0493  116.97   estimate D2E/DX2         !
 ! A135  A(48,52,54)      120.6651  120.3865  120.0947 estimate D2E/DX2         !
 ! A136  A(21,54,52)      124.1511  124.391   124.5567 estimate D2E/DX2         !
 ! A137  A(21,54,55)      116.5676  116.7506  116.7927 estimate D2E/DX2         !
 ! A138  A(52,54,55)      119.2814  118.8579  118.6503 estimate D2E/DX2         !
 ! A139  A(17,57,58)      120.5875  120.597   120.3067 estimate D2E/DX2         !
 ! A140  A(17,57,60)      119.6591  119.6479  119.8457 estimate D2E/DX2         !
 ! A141  A(58,57,60)      119.7533  119.7552  119.8473 estimate D2E/DX2         !
 ! A142  A(18,58,57)      120.0622  120.2931  120.0864 estimate D2E/DX2         !
 ! A143  A(18,58,59)      119.7339  119.4952  119.7296 estimate D2E/DX2         !
 ! A144  A(57,58,59)      120.2037  120.2117  120.1834 estimate D2E/DX2         !
 ! A145  A(13,62,31)        5.8707    8.5014  148.3802 estimate D2E/DX2         !
 ! D1    D(4,1,7,10)      120.4379  118.0929  116.3527 estimate D2E/DX2         !
 ! D2    D(4,1,7,25)      -65.6026  -65.7047  -65.8409 estimate D2E/DX2         !
 ! D3    D(6,1,7,10)       34.4727   28.7733   26.0902 estimate D2E/DX2         !
 ! D4    D(6,1,7,25)     -151.5678 -155.0243 -156.1034 estimate D2E/DX2         !
 ! D5    D(13,1,7,10)    -138.2619 -151.027   -86.5137 estimate D2E/DX2         !
 ! D6    D(13,1,7,25)      35.6975   25.1754   91.2927 estimate D2E/DX2         !
 ! D7    D(21,1,7,10)     -57.5118  -64.0218  -66.9962 estimate D2E/DX2         !
 ! D8    D(21,1,7,25)     116.4476  112.1806  110.8102 estimate D2E/DX2         !
 ! D9    D(61,1,7,10)     168.3016  164.4312 -159.1273 estimate D2E/DX2         !
 ! D10   D(61,1,7,25)     -17.739   -19.3665   18.679  estimate D2E/DX2         !
 ! D11   D(2,1,15,16)    -136.4778 -132.5668  117.3152 estimate D2E/DX2         !
 ! D12   D(2,1,15,18)      47.9768   46.8712   -7.0382 estimate D2E/DX2         !
 ! D13   D(4,1,15,16)     121.529   134.5698    8.9434 estimate D2E/DX2         !
 ! D14   D(4,1,15,18)     -54.0164  -45.9921 -115.41   estimate D2E/DX2         !
 ! D15   D(7,1,15,16)      39.0741   45.9148  -62.8995 estimate D2E/DX2         !
 ! D16   D(7,1,15,18)    -136.4713 -134.6472  172.7471 estimate D2E/DX2         !
 ! D17   D(21,1,15,16)    -53.8892  -43.5417 -170.8879 estimate D2E/DX2         !
 ! D18   D(21,1,15,18)    130.5654  135.8964   64.7587 estimate D2E/DX2         !
 ! D19   D(2,1,21,27)      66.1248   64.9775   66.0092 estimate D2E/DX2         !
 ! D20   D(2,1,21,54)    -118.1902 -119.1227 -116.3481 estimate D2E/DX2         !
 ! D21   D(6,1,21,27)     151.8421  154.3689  156.2852 estimate D2E/DX2         !
 ! D22   D(6,1,21,54)     -32.4729  -29.7313  -26.0721 estimate D2E/DX2         !
 ! D23   D(7,1,21,27)    -116.0142 -112.6715 -110.6537 estimate D2E/DX2         !
 ! D24   D(7,1,21,54)      59.6709   63.2282   66.989  estimate D2E/DX2         !
 ! D25   D(13,1,21,27)    -36.1241  -25.5371  -91.1356 estimate D2E/DX2         !
 ! D26   D(13,1,21,54)    139.561   150.3627   86.5071 estimate D2E/DX2         !
 ! D27   D(61,1,21,27)     18.2717   17.5031  -18.5141 estimate D2E/DX2         !
 ! D28   D(61,1,21,54)   -166.0432 -166.5972  159.1286 estimate D2E/DX2         !
 ! D29   D(1,7,10,33)     168.0747  170.9989  173.1231 estimate D2E/DX2         !
 ! D30   D(1,7,10,56)     -12.1089   -8.6878   -6.7473 estimate D2E/DX2         !
 ! D31   D(25,7,10,33)     -6.0939   -5.3429   -4.7922 estimate D2E/DX2         !
 ! D32   D(25,7,10,56)    173.7226  174.9705  175.3374 estimate D2E/DX2         !
 ! D33   D(1,7,25,8)     -170.6499 -174.1697 -177.2166 estimate D2E/DX2         !
 ! D34   D(1,7,25,26)       9.2081    5.9781    1.8568 estimate D2E/DX2         !
 ! D35   D(10,7,25,8)       3.5147    2.1817    0.6474 estimate D2E/DX2         !
 ! D36   D(10,7,25,26)   -176.6274 -177.6705  179.7208 estimate D2E/DX2         !
 ! D37   D(11,8,9,12)      -1.7817   -1.589    -1.8553 estimate D2E/DX2         !
 ! D38   D(11,8,9,33)     178.1938  178.9627  178.9172 estimate D2E/DX2         !
 ! D39   D(25,8,9,12)     177.0154  176.9571  176.5923 estimate D2E/DX2         !
 ! D40   D(25,8,9,33)      -3.009    -2.4911   -2.6352 estimate D2E/DX2         !
 ! D41   D(9,8,11,19)     116.1584  128.0158  111.5414 estimate D2E/DX2         !
 ! D42   D(25,8,11,19)    -62.6322  -50.5278  -66.9071 estimate D2E/DX2         !
 ! D43   D(9,8,25,7)        0.9272    1.6357    2.9883 estimate D2E/DX2         !
 ! D44   D(9,8,25,26)    -178.9259 -178.5168 -176.0389 estimate D2E/DX2         !
 ! D45   D(11,8,25,7)     179.7436 -179.7923 -178.5399 estimate D2E/DX2         !
 ! D46   D(11,8,25,26)     -0.1096    0.0552    2.4328 estimate D2E/DX2         !
 ! D47   D(8,9,33,10)       0.7189   -0.3199   -1.0696 estimate D2E/DX2         !
 ! D48   D(8,9,33,34)    -178.5804  179.0584  179.0325 estimate D2E/DX2         !
 ! D49   D(12,9,33,10)   -179.3055 -179.7707  179.6995 estimate D2E/DX2         !
 ! D50   D(12,9,33,34)      1.3953   -0.3925   -0.1985 estimate D2E/DX2         !
 ! D51   D(7,10,33,9)       4.0097    4.4392    5.015  estimate D2E/DX2         !
 ! D52   D(7,10,33,34)   -176.6814 -174.9538 -175.0839 estimate D2E/DX2         !
 ! D53   D(56,10,33,9)   -175.8023 -175.8802 -175.1168 estimate D2E/DX2         !
 ! D54   D(56,10,33,34)     3.5067    4.7267    4.7842 estimate D2E/DX2         !
 ! D55   D(8,11,19,16)    118.1501  117.7639   53.3578 estimate D2E/DX2         !
 ! D56   D(62,13,15,16)    -2.3073    0.4233   89.7844 estimate D2E/DX2         !
 ! D57   D(62,13,15,18)   179.7347 -179.8178  -89.249  estimate D2E/DX2         !
 ! D58   D(14,13,62,31)    -7.5537    1.3918 -178.9573 estimate D2E/DX2         !
 ! D59   D(14,15,16,17)  -178.7357  179.857  -178.3155 estimate D2E/DX2         !
 ! D60   D(14,15,16,19)     1.0483   -0.1263    1.3773 estimate D2E/DX2         !
 ! D61   D(18,15,16,17)     0.0188    0.0027    0.8132 estimate D2E/DX2         !
 ! D62   D(18,15,16,19)   179.8028 -179.9806 -179.494  estimate D2E/DX2         !
 ! D63   D(14,15,18,20)    -1.046     0.1848   -1.3207 estimate D2E/DX2         !
 ! D64   D(14,15,18,58)   178.7782 -179.8524  178.3373 estimate D2E/DX2         !
 ! D65   D(16,15,18,20)  -179.8267 -179.9624  179.5513 estimate D2E/DX2         !
 ! D66   D(16,15,18,58)    -0.0024    0.0003   -0.7907 estimate D2E/DX2         !
 ! D67   D(15,16,17,29)   179.8768  179.998   179.6371 estimate D2E/DX2         !
 ! D68   D(15,16,17,57)     0.0056   -0.0077   -0.1502 estimate D2E/DX2         !
 ! D69   D(19,16,17,29)     0.0948   -0.0189   -0.0534 estimate D2E/DX2         !
 ! D70   D(19,16,17,57)  -179.7764  179.9755 -179.8408 estimate D2E/DX2         !
 ! D71   D(15,16,19,11)   -67.5767  -64.5372  -76.5178 estimate D2E/DX2         !
 ! D72   D(17,16,19,11)   112.2032  115.4798  103.1717 estimate D2E/DX2         !
 ! D73   D(16,17,57,58)    -0.0466    0.0098   -0.5324 estimate D2E/DX2         !
 ! D74   D(16,17,57,60)   179.8621 -179.988   179.6298 estimate D2E/DX2         !
 ! D75   D(29,17,57,58)  -179.9172 -179.9959  179.6812 estimate D2E/DX2         !
 ! D76   D(29,17,57,60)    -0.0085    0.0063   -0.1566 estimate D2E/DX2         !
 ! D77   D(15,18,20,24)   -42.4101  -39.6752   72.2844 estimate D2E/DX2         !
 ! D78   D(15,18,20,61)     8.724     2.2233   79.8547 estimate D2E/DX2         !
 ! D79   D(58,18,20,24)   137.7702  140.3632 -107.37   estimate D2E/DX2         !
 ! D80   D(58,18,20,61)  -171.0957 -177.7383  -99.7997 estimate D2E/DX2         !
 ! D81   D(15,18,58,57)    -0.0384    0.0017    0.1052 estimate D2E/DX2         !
 ! D82   D(15,18,58,59)  -179.8888  179.9964 -179.6257 estimate D2E/DX2         !
 ! D83   D(20,18,58,57)   179.7819  179.9635  179.7607 estimate D2E/DX2         !
 ! D84   D(20,18,58,59)    -0.0685   -0.0418    0.0298 estimate D2E/DX2         !
 ! D85   D(18,20,24,22)   106.3181  118.348   -46.9348 estimate D2E/DX2         !
 ! D86   D(1,21,27,22)    173.1498  173.7347  176.964  estimate D2E/DX2         !
 ! D87   D(1,21,27,28)     -6.7711   -6.4186   -2.0847 estimate D2E/DX2         !
 ! D88   D(54,21,27,22)    -2.6774   -2.3232   -0.7414 estimate D2E/DX2         !
 ! D89   D(54,21,27,28)   177.4017  177.5235 -179.79   estimate D2E/DX2         !
 ! D90   D(1,21,54,52)   -169.9016 -170.7064 -172.9049 estimate D2E/DX2         !
 ! D91   D(1,21,54,55)     10.0849    9.0522    6.903  estimate D2E/DX2         !
 ! D92   D(27,21,54,52)     5.9256    5.3464    4.8541 estimate D2E/DX2         !
 ! D93   D(27,21,54,55)  -174.0879 -174.895  -175.338  estimate D2E/DX2         !
 ! D94   D(24,22,23,52)  -178.6674 -178.8661 -178.9497 estimate D2E/DX2         !
 ! D95   D(24,22,23,53)     1.6118    1.5972    1.8437 estimate D2E/DX2         !
 ! D96   D(27,22,23,52)     2.8031    2.5283    2.6426 estimate D2E/DX2         !
 ! D97   D(27,22,23,53)  -176.9177 -177.0084 -176.5639 estimate D2E/DX2         !
 ! D98   D(23,22,24,20)  -160.1063 -167.1236 -114.2662 estimate D2E/DX2         !
 ! D99   D(27,22,24,20)    18.4153   11.4793   64.1416 estimate D2E/DX2         !
 ! D100  D(23,22,27,21)    -1.5845   -1.5128   -2.9271 estimate D2E/DX2         !
 ! D101  D(23,22,27,28)   178.3334  178.6454  176.0741 estimate D2E/DX2         !
 ! D102  D(24,22,27,21)   179.8633  179.8569  178.6415 estimate D2E/DX2         !
 ! D103  D(24,22,27,28)    -0.2188    0.0151   -2.3573 estimate D2E/DX2         !
 ! D104  D(22,23,52,48)   179.6727 -179.5503 -179.0167 estimate D2E/DX2         !
 ! D105  D(22,23,52,54)     0.0878    0.1582    1.0323 estimate D2E/DX2         !
 ! D106  D(53,23,52,48)    -0.6054   -0.0113    0.1935 estimate D2E/DX2         !
 ! D107  D(53,23,52,54)   179.8097  179.6972 -179.7574 estimate D2E/DX2         !
 ! D108  D(43,31,39,34)  -171.5954 -171.0588 -171.1073 estimate D2E/DX2         !
 ! D109  D(43,31,39,38)     7.4791    7.9929    8.0804 estimate D2E/DX2         !
 ! D110  D(62,31,39,34)  -178.4506 -178.5638   10.4416 estimate D2E/DX2         !
 ! D111  D(62,31,39,38)     0.6239    0.4878 -170.3707 estimate D2E/DX2         !
 ! D112  D(63,31,39,34)     7.7936    8.319  -178.7139 estimate D2E/DX2         !
 ! D113  D(63,31,39,38)  -173.1319 -172.6293    0.4738 estimate D2E/DX2         !
 ! D114  D(39,31,43,44)    -7.1149   -8.0368   -8.1047 estimate D2E/DX2         !
 ! D115  D(39,31,43,48)   171.892   171.0122  171.1092 estimate D2E/DX2         !
 ! D116  D(62,31,43,44)    -0.2605   -0.532   170.3468 estimate D2E/DX2         !
 ! D117  D(62,31,43,48)   178.7464  178.517   -10.4393 estimate D2E/DX2         !
 ! D118  D(63,31,43,44)   173.4966  172.5853   -0.4984 estimate D2E/DX2         !
 ! D119  D(63,31,43,48)    -7.4965   -8.3657  178.7155 estimate D2E/DX2         !
 ! D120  D(39,31,62,13)    85.5526   86.7475   89.3766 estimate D2E/DX2         !
 ! D121  D(43,31,62,13)   -87.8717  -86.0571  -89.1292 estimate D2E/DX2         !
 ! D122  D(44,32,38,37)   178.3419  178.0761  178.3863 estimate D2E/DX2         !
 ! D123  D(44,32,38,39)    -2.2239   -2.5547   -2.5202 estimate D2E/DX2         !
 ! D124  D(62,32,38,37)    -0.6561   -0.9271 -175.4289 estimate D2E/DX2         !
 ! D125  D(62,32,38,39)   178.7781  178.4421    3.6647 estimate D2E/DX2         !
 ! D126  D(63,32,38,37)  -176.5196 -176.3626   -0.8107 estimate D2E/DX2         !
 ! D127  D(63,32,38,39)     2.9146    3.0066  178.2828 estimate D2E/DX2         !
 ! D128  D(38,32,44,43)     2.5908    2.5098    2.496  estimate D2E/DX2         !
 ! D129  D(38,32,44,45)  -177.9771 -178.1172 -178.4259 estimate D2E/DX2         !
 ! D130  D(62,32,44,43)  -178.4116 -178.4869   -3.689  estimate D2E/DX2         !
 ! D131  D(62,32,44,45)     1.0205    0.8861  175.3891 estimate D2E/DX2         !
 ! D132  D(63,32,44,43)    -2.5459   -3.052  -178.3071 estimate D2E/DX2         !
 ! D133  D(63,32,44,45)   176.8862  176.3211    0.771  estimate D2E/DX2         !
 ! D134  D(9,33,34,35)     47.7311   51.0888   50.1007 estimate D2E/DX2         !
 ! D135  D(9,33,34,39)   -134.3683 -131.0271 -132.6936 estimate D2E/DX2         !
 ! D136  D(10,33,34,35)  -131.5423 -129.5527 -129.7941 estimate D2E/DX2         !
 ! D137  D(10,33,34,39)    46.3583   48.3314   47.4115 estimate D2E/DX2         !
 ! D138  D(33,34,35,36)   177.0531  176.8502  176.1599 estimate D2E/DX2         !
 ! D139  D(33,34,35,40)    -0.7091   -0.8529   -1.356  estimate D2E/DX2         !
 ! D140  D(39,34,35,36)    -0.8801   -1.0475   -1.0659 estimate D2E/DX2         !
 ! D141  D(39,34,35,40)  -178.6422 -178.7507 -178.5818 estimate D2E/DX2         !
 ! D142  D(33,34,39,31)     4.991     5.0696    6.0886 estimate D2E/DX2         !
 ! D143  D(33,34,39,38)  -174.0771 -173.9738 -173.0931 estimate D2E/DX2         !
 ! D144  D(35,34,39,31)  -177.0834 -177.0086 -176.6552 estimate D2E/DX2         !
 ! D145  D(35,34,39,38)     3.8485    3.9479    4.1631 estimate D2E/DX2         !
 ! D146  D(34,35,36,37)    -1.8711   -1.7539   -1.9335 estimate D2E/DX2         !
 ! D147  D(34,35,36,41)   179.8881 -179.946   179.9868 estimate D2E/DX2         !
 ! D148  D(40,35,36,37)   175.9075  175.9639  175.5989 estimate D2E/DX2         !
 ! D149  D(40,35,36,41)    -2.3333   -2.2281   -2.4808 estimate D2E/DX2         !
 ! D150  D(35,36,37,38)     1.5474    1.5673    1.7411 estimate D2E/DX2         !
 ! D151  D(35,36,37,42)  -178.0336 -177.994  -177.8964 estimate D2E/DX2         !
 ! D152  D(41,36,37,38)   179.765   179.737   179.7978 estimate D2E/DX2         !
 ! D153  D(41,36,37,42)     0.184     0.1757    0.1604 estimate D2E/DX2         !
 ! D154  D(36,37,38,32)  -179.0994 -179.2627 -179.5119 estimate D2E/DX2         !
 ! D155  D(36,37,38,39)     1.466     1.3667    1.3922 estimate D2E/DX2         !
 ! D156  D(42,37,38,32)     0.4905    0.3067    0.1322 estimate D2E/DX2         !
 ! D157  D(42,37,38,39)  -178.9442 -179.0639 -178.9637 estimate D2E/DX2         !
 ! D158  D(32,38,39,31)    -2.6935   -2.5673   -2.6519 estimate D2E/DX2         !
 ! D159  D(32,38,39,34)   176.4112  176.5107  176.5569 estimate D2E/DX2         !
 ! D160  D(37,38,39,31)   176.757   176.824   176.4737 estimate D2E/DX2         !
 ! D161  D(37,38,39,34)    -4.1382   -4.0979   -4.3176 estimate D2E/DX2         !
 ! D162  D(31,43,44,32)     1.9663    2.6566    2.6995 estimate D2E/DX2         !
 ! D163  D(31,43,44,45)  -177.4822 -176.7383 -176.4112 estimate D2E/DX2         !
 ! D164  D(48,43,44,32)  -177.0728 -176.4191 -176.5346 estimate D2E/DX2         !
 ! D165  D(48,43,44,45)     3.4787    4.186     4.3546 estimate D2E/DX2         !
 ! D166  D(31,43,48,47)   177.6991  176.9457  176.5563 estimate D2E/DX2         !
 ! D167  D(31,43,48,52)    -4.1723   -5.2827   -6.1537 estimate D2E/DX2         !
 ! D168  D(44,43,48,47)    -3.3009   -4.0136   -4.2356 estimate D2E/DX2         !
 ! D169  D(44,43,48,52)   174.8277  173.758   173.0544 estimate D2E/DX2         !
 ! D170  D(32,44,45,46)   179.3328  179.2214  179.5474 estimate D2E/DX2         !
 ! D171  D(32,44,45,49)    -0.1924   -0.3466   -0.1163 estimate D2E/DX2         !
 ! D172  D(43,44,45,46)    -1.2346   -1.4041   -1.3722 estimate D2E/DX2         !
 ! D173  D(43,44,45,49)   179.2402  179.0279  178.9641 estimate D2E/DX2         !
 ! D174  D(44,45,46,47)    -1.2342   -1.6024   -1.7832 estimate D2E/DX2         !
 ! D175  D(44,45,46,50)  -179.611  -179.7387 -179.8274 estimate D2E/DX2         !
 ! D176  D(49,45,46,47)   178.2803  177.9574  177.8742 estimate D2E/DX2         !
 ! D177  D(49,45,46,50)    -0.0965   -0.1789   -0.1699 estimate D2E/DX2         !
 ! D178  D(45,46,47,48)     1.4373    1.8123    1.9391 estimate D2E/DX2         !
 ! D179  D(45,46,47,51)  -176.4698 -175.853  -175.6076 estimate D2E/DX2         !
 ! D180  D(50,46,47,48)   179.8351  179.9713 -179.9938 estimate D2E/DX2         !
 ! D181  D(50,46,47,51)     1.9279    2.306     2.4595 estimate D2E/DX2         !
 ! D182  D(46,47,48,43)     0.8721    1.0412    1.1177 estimate D2E/DX2         !
 ! D183  D(46,47,48,52)  -177.2564 -176.7106 -176.1422 estimate D2E/DX2         !
 ! D184  D(51,47,48,43)   178.7657  178.691   178.648  estimate D2E/DX2         !
 ! D185  D(51,47,48,52)     0.6372    0.9392    1.388  estimate D2E/DX2         !
 ! D186  D(43,48,52,23)   132.5094  131.8205  132.61   estimate D2E/DX2         !
 ! D187  D(43,48,52,54)   -47.9204  -47.8786  -47.4405 estimate D2E/DX2         !
 ! D188  D(47,48,52,23)   -49.3869  -50.4459  -50.15   estimate D2E/DX2         !
 ! D189  D(47,48,52,54)   130.1833  129.855   129.7995 estimate D2E/DX2         !
 ! D190  D(23,52,54,21)    -4.6511   -4.2914   -5.0121 estimate D2E/DX2         !
 ! D191  D(23,52,54,55)   175.3627  175.9547  175.1833 estimate D2E/DX2         !
 ! D192  D(48,52,54,21)   175.7568  175.4238  175.0354 estimate D2E/DX2         !
 ! D193  D(48,52,54,55)    -4.2294   -4.3301   -4.7691 estimate D2E/DX2         !
 ! D194  D(17,57,58,18)     0.0633   -0.0068    0.5552 estimate D2E/DX2         !
 ! D195  D(17,57,58,59)   179.913   179.9986 -179.7151 estimate D2E/DX2         !
 ! D196  D(60,57,58,18)  -179.8453  179.991  -179.607  estimate D2E/DX2         !
 ! D197  D(60,57,58,59)     0.0043   -0.0036    0.1226 estimate D2E/DX2         !
 --------------------------------------------------------------------------------
 Trust Radius=3.00D-01 FncErr=1.00D-07 GrdErr=1.00D-06 EigMax=2.50D+02 EigMin=1.00D-04
 Number of steps in this run=    378 maximum allowed number of steps=    378.
 Search for a saddle point of order  1.
 GradGradGradGradGradGradGradGradGradGradGradGradGradGradGradGradGradGrad

 Stoichiometry    C34H21BrMnN3O3
 Framework group  C1[X(C34H21BrMnN3O3)]
 Deg. of freedom   183
 Full point group                 C1      NOp   1
 Largest Abelian subgroup         C1      NOp   1
 Largest concise Abelian subgroup C1      NOp   1
                         Standard orientation:                         
 ---------------------------------------------------------------------
 Center     Atomic      Atomic             Coordinates (Angstroms)
 Number     Number       Type             X           Y           Z
 ---------------------------------------------------------------------
      1         25           0        1.275098   -0.747739   -1.276041
      2          6           0        1.980320   -2.442078   -1.438041
      3          8           0        2.171167   -3.571940   -1.507069
      4          6           0        2.070079    0.080526   -2.720424
      5          8           0        2.326463    0.678070   -3.666173
      6          6           0        0.023116   -1.295898   -2.430199
      7          7           0        0.265341    1.245748   -1.001126
      8          6           0        0.371057    3.541220   -0.321407
      9          6           0       -1.017279    3.614495   -0.264983
     10          6           0       -1.064966    1.354015   -1.031130
     11          1           0        0.993862    4.401137   -0.068300
     12          1           0       -1.514328    4.531125    0.063527
     13          7           0        2.433629    0.020611    0.262431
     14          6           0        3.105537    0.503774    1.064537
     15          6           0        4.029560    1.099001    1.986492
     16          6           0        3.565146    1.871041    3.060224
     17          6           0        4.488181    2.456247    3.920765
     18          6           0        5.402697    0.909191    1.769255
     19          1           0        2.492099    2.009171    3.209939
     20          1           0        5.732929    0.303809    0.921057
     21          7           0        0.181706   -1.624885    0.441150
     22          6           0        0.174703   -2.466386    2.683216
     23          6           0       -1.216073   -2.431632    2.717625
     24          1           0        0.753401   -2.797963    3.547115
     25          6           0        0.969923    2.341854   -0.683231
     26          1           0        2.057109    2.256424   -0.717149
     27          6           0        0.833083   -2.041728    1.537016
     28          1           0        1.923575   -2.033178    1.493492
     29          1           0        4.138557    3.061834    4.760003
     30          8           0       -0.746869   -1.671411   -3.202437
     31          6           0       -3.384814    0.345692    0.602840
     32          6           0       -6.152009    0.290197    0.306548
     33          6           0       -1.771484    2.498187   -0.635199
     34          6           0       -3.261474    2.511617   -0.630351
     35          6           0       -3.945585    3.550206   -1.209223
     36          6           0       -5.371094    3.560174   -1.274732
     37          6           0       -6.096564    2.510169   -0.792769
     38          6           0       -5.438479    1.392042   -0.181491
     39          6           0       -4.008341    1.409151   -0.056071
     40          1           0       -3.390846    4.375040   -1.664596
     41          1           0       -5.874140    4.409459   -1.743598
     42          1           0       -7.187140    2.499779   -0.869959
     43          6           0       -4.077755   -0.799238    1.006701
     44          6           0       -5.507077   -0.816744    0.872613
     45          6           0       -6.234949   -1.963208    1.333499
     46          6           0       -5.575864   -3.031506    1.867975
     47          6           0       -4.151299   -3.038983    1.954127
     48          6           0       -3.402578   -1.969705    1.533292
     49          1           0       -7.324278   -1.965212    1.240118
     50          1           0       -6.132142   -3.906601    2.212669
     51          1           0       -3.649394   -3.933239    2.333564
     52          6           0       -1.914204   -2.026417    1.577396
     53          1           0       -1.758102   -2.712516    3.624350
     54          6           0       -1.152342   -1.677684    0.454713
     55          1           0       -1.659930   -1.429447   -0.478350
     56          1           0       -1.617379    0.485886   -1.393008
     57          6           0        5.856050    2.271885    3.710144
     58          6           0        6.312389    1.501090    2.639361
     59          1           0        7.384023    1.362146    2.479620
     60          1           0        6.575355    2.736754    4.389264
     61         35           0        4.255525   -1.093931   -1.741533
     62          1           0       -7.243082    0.287307    0.228658
     63          1           0       -2.317463    0.407872    0.799972
 ---------------------------------------------------------------------
 Rotational constants (GHZ):           0.1079792           0.0477915           0.0462485
 General basis read from cards:  (5D, 7F)
 There are   802 symmetry adapted cartesian basis functions of A   symmetry.
 There are   751 symmetry adapted basis functions of A   symmetry.
   751 basis functions,  1339 primitive gaussians,   802 cartesian basis functions
   165 alpha electrons      165 beta electrons
       nuclear repulsion energy      6020.0543238361 Hartrees.
 NAtoms=   63 NActive=   63 NUniq=   63 SFac= 1.00D+00 NAtFMM=   60 NAOKFM=T Big=T
 Integral buffers will be    131072 words long.
 Raffenetti 2 integral format.
 Two-electron integral symmetry is turned on.
 Nuclear repulsion after empirical dispersion term =     6019.9905985506 Hartrees.
 ------------------------------------------------------------------------------
 Polarizable Continuum Model (PCM)
 =================================
 Model                : PCM.
 Atomic radii         : UFF (Universal Force Field).
 Polarization charges : Total charges.
 Charge compensation  : None.
 Solution method      : On-the-fly selection.
 Cavity type          : Scaled VdW (van der Waals Surface) (Alpha=1.100).
 Cavity algorithm     : GePol (No added spheres)
                        Default sphere list used, NSphG=   63.
                        Lebedev-Laikov grids with approx.  5.0 points / Ang**2.
                        Smoothing algorithm: York/Karplus (Gamma=1.0000).
                        Polarization charges: spherical gaussians, with
                                              point-specific exponents (IZeta= 3).
                        Self-potential: point-specific (ISelfS= 7).
                        Self-field    : sphere-specific E.n sum rule (ISelfD= 2).
 1st derivatives      : Analytical E(r).r(x)/FMM algorithm (CHGder, D1EAlg=3).
                        Cavity 1st derivative terms included.
 Solvent              : TetraHydroFuran, Eps=   7.425700 Eps(inf)=   1.974025
 ------------------------------------------------------------------------------
 One-electron integrals computed using PRISM.
 PrsmSu:  requested number of processors reduced to:  11 ShMem   1 Linda.
 NBasis=   751 RedAO= T EigKep=  2.24D-04  NBF=   751
 NBsUse=   751 1.00D-06 EigRej= -1.00D+00 NBFU=   751
 ExpMin= 3.93D-02 ExpMax= 2.77D+05 ExpMxC= 1.70D+04 IAcc=3 IRadAn=         5 AccDes= 0.00D+00
 Harris functional with IExCor= 4639 and IRadAn=       5 diagonalized for initial guess.
 HarFok:  IExCor= 4639 AccDes= 0.00D+00 IRadAn=         5 IDoV= 1 UseB2=F ITyADJ=14
 ICtDFT=  3500011 ScaDFX=  1.000000  1.000000  1.000000  1.000000
 FoFCou: FMM=F IPFlag=           0 FMFlag=      100000 FMFlg1=        2001
         NFxFlg=           0 DoJE=T BraDBF=F KetDBF=T FulRan=T
         wScrn=  0.000000 ICntrl=       500 IOpCl=  0 I1Cent=   200000004 NGrid=           0
         NMat0=    1 NMatS0=      1 NMatT0=    0 NMatD0=    1 NMtDS0=    0 NMtDT0=    0
 Petite list used in FoFCou.
 Requested convergence on RMS density matrix=1.00D-08 within 128 cycles.
 Requested convergence on MAX density matrix=1.00D-06.
 Requested convergence on             energy=1.00D-06.
 No special actions if energy rises.
 CoulSu:  requested number of processors reduced to:  10 ShMem   1 Linda.
 Inv3:  Mode=1 IEnd=    67602027.
 Iteration    1 A*A^-1 deviation from unit magnitude is 3.11D-15 for    362.
 Iteration    1 A*A^-1 deviation from orthogonality  is 2.45D-15 for   4320   2576.
 Iteration    1 A^-1*A deviation from unit magnitude is 3.55D-15 for    362.
 Iteration    1 A^-1*A deviation from orthogonality  is 4.35D-13 for   3657   3600.
 CoulSu:  requested number of processors reduced to:  10 ShMem   1 Linda.
 CoulSu:  requested number of processors reduced to:  10 ShMem   1 Linda.
 Restarting incremental Fock formation.
 Error on total polarization charges =  0.02057
 SCF Done:  E(RwB97XD) =  -5421.42934994     A.U. after   22 cycles
            NFock= 22  Conv=0.43D-08     -V/T= 2.0041

 **********************************************************************

            Population analysis using the SCF density.

 **********************************************************************

 Orbital symmetries:
       Occupied  (A) (A) (A) (A) (A) (A) (A) (A) (A) (A) (A) (A)
                 (A) (A) (A) (A) (A) (A) (A) (A) (A) (A) (A) (A)
                 (A) (A) (A) (A) (A) (A) (A) (A) (A) (A) (A) (A)
                 (A) (A) (A) (A) (A) (A) (A) (A) (A) (A) (A) (A)
                 (A) (A) (A) (A) (A) (A) (A) (A) (A) (A) (A) (A)
                 (A) (A) (A) (A) (A) (A) (A) (A) (A) (A) (A) (A)
                 (A) (A) (A) (A) (A) (A) (A) (A) (A) (A) (A) (A)
                 (A) (A) (A) (A) (A) (A) (A) (A) (A) (A) (A) (A)
                 (A) (A) (A) (A) (A) (A) (A) (A) (A) (A) (A) (A)
                 (A) (A) (A) (A) (A) (A) (A) (A) (A) (A) (A) (A)
                 (A) (A) (A) (A) (A) (A) (A) (A) (A) (A) (A) (A)
                 (A) (A) (A) (A) (A) (A) (A) (A) (A) (A) (A) (A)
                 (A) (A) (A) (A) (A) (A) (A) (A) (A) (A) (A) (A)
                 (A) (A) (A) (A) (A) (A) (A) (A) (A)
       Virtual   (A) (A) (A) (A) (A) (A) (A) (A) (A) (A) (A) (A)
                 (A) (A) (A) (A) (A) (A) (A) (A) (A) (A) (A) (A)
                 (A) (A) (A) (A) (A) (A) (A) (A) (A) (A) (A) (A)
                 (A) (A) (A) (A) (A) (A) (A) (A) (A) (A) (A) (A)
                 (A) (A) (A) (A) (A) (A) (A) (A) (A) (A) (A) (A)
                 (A) (A) (A) (A) (A) (A) (A) (A) (A) (A) (A) (A)
                 (A) (A) (A) (A) (A) (A) (A) (A) (A) (A) (A) (A)
                 (A) (A) (A) (A) (A) (A) (A) (A) (A) (A) (A) (A)
                 (A) (A) (A) (A) (A) (A) (A) (A) (A) (A) (A) (A)
                 (A) (A) (A) (A) (A) (A) (A) (A) (A) (A) (A) (A)
                 (A) (A) (A) (A) (A) (A) (A) (A) (A) (A) (A) (A)
                 (A) (A) (A) (A) (A) (A) (A) (A) (A) (A) (A) (A)
                 (A) (A) (A) (A) (A) (A) (A) (A) (A) (A) (A) (A)
                 (A) (A) (A) (A) (A) (A) (A) (A) (A) (A) (A) (A)
                 (A) (A) (A) (A) (A) (A) (A) (A) (A) (A) (A) (A)
                 (A) (A) (A) (A) (A) (A) (A) (A) (A) (A) (A) (A)
                 (A) (A) (A) (A) (A) (A) (A) (A) (A) (A) (A) (A)
                 (A) (A) (A) (A) (A) (A) (A) (A) (A) (A) (A) (A)
                 (A) (A) (A) (A) (A) (A) (A) (A) (A) (A) (A) (A)
                 (A) (A) (A) (A) (A) (A) (A) (A) (A) (A) (A) (A)
                 (A) (A) (A) (A) (A) (A) (A) (A) (A) (A) (A) (A)
                 (A) (A) (A) (A) (A) (A) (A) (A) (A) (A) (A) (A)
                 (A) (A) (A) (A) (A) (A) (A) (A) (A) (A) (A) (A)
                 (A) (A) (A) (A) (A) (A) (A) (A) (A) (A) (A) (A)
                 (A) (A) (A) (A) (A) (A) (A) (A) (A) (A) (A) (A)
                 (A) (A) (A) (A) (A) (A) (A) (A) (A) (A) (A) (A)
                 (A) (A) (A) (A) (A) (A) (A) (A) (A) (A) (A) (A)
                 (A) (A) (A) (A) (A) (A) (A) (A) (A) (A) (A) (A)
                 (A) (A) (A) (A) (A) (A) (A) (A) (A) (A) (A) (A)
                 (A) (A) (A) (A) (A) (A) (A) (A) (A) (A) (A) (A)
                 (A) (A) (A) (A) (A) (A) (A) (A) (A) (A) (A) (A)
                 (A) (A) (A) (A) (A) (A) (A) (A) (A) (A) (A) (A)
                 (A) (A) (A) (A) (A) (A) (A) (A) (A) (A) (A) (A)
                 (A) (A) (A) (A) (A) (A) (A) (A) (A) (A) (A) (A)
                 (A) (A) (A) (A) (A) (A) (A) (A) (A) (A) (A) (A)
                 (A) (A) (A) (A) (A) (A) (A) (A) (A) (A) (A) (A)
                 (A) (A) (A) (A) (A) (A) (A) (A) (A) (A) (A) (A)
                 (A) (A) (A) (A) (A) (A) (A) (A) (A) (A) (A) (A)
                 (A) (A) (A) (A) (A) (A) (A) (A) (A) (A) (A) (A)
                 (A) (A) (A) (A) (A) (A) (A) (A) (A) (A) (A) (A)
                 (A) (A) (A) (A) (A) (A) (A) (A) (A) (A) (A) (A)
                 (A) (A) (A) (A) (A) (A) (A) (A) (A) (A) (A) (A)
                 (A) (A) (A) (A) (A) (A) (A) (A) (A) (A) (A) (A)
                 (A) (A) (A) (A) (A) (A) (A) (A) (A) (A) (A) (A)
                 (A) (A) (A) (A) (A) (A) (A) (A) (A) (A) (A) (A)
                 (A) (A) (A) (A) (A) (A) (A) (A) (A) (A) (A) (A)
                 (A) (A) (A) (A) (A) (A) (A) (A) (A) (A) (A) (A)
                 (A) (A) (A) (A) (A) (A) (A) (A) (A) (A) (A) (A)
                 (A) (A) (A) (A) (A) (A) (A) (A) (A) (A)
 The electronic state is 1-A.
 Alpha  occ. eigenvalues -- -482.96020-235.68206 -62.54102 -56.34668 -56.34654
 Alpha  occ. eigenvalues --  -56.34631 -27.44984 -23.50925 -23.50786 -23.50218
 Alpha  occ. eigenvalues --  -19.32513 -19.32062 -19.32015 -14.49840 -14.49757
 Alpha  occ. eigenvalues --  -14.48557 -10.40195 -10.40188 -10.40129 -10.37804
 Alpha  occ. eigenvalues --  -10.36531 -10.36528 -10.36063 -10.36046 -10.35927
 Alpha  occ. eigenvalues --  -10.34306 -10.34295 -10.34194 -10.34188 -10.33775
 Alpha  occ. eigenvalues --  -10.33465 -10.33393 -10.33383 -10.33115 -10.33114
 Alpha  occ. eigenvalues --  -10.33087 -10.33075 -10.32908 -10.32713 -10.32710
 Alpha  occ. eigenvalues --  -10.32609 -10.32476 -10.32135 -10.32131 -10.31947
 Alpha  occ. eigenvalues --  -10.31868 -10.31847 -10.31840 -10.31705 -10.31700
 Alpha  occ. eigenvalues --   -8.70912  -6.52653  -6.52590  -6.52511  -3.24431
 Alpha  occ. eigenvalues --   -2.63167  -2.63163  -2.63096  -2.63047  -2.63038
 Alpha  occ. eigenvalues --   -2.10318  -2.09890  -2.08753  -1.21248  -1.21027
 Alpha  occ. eigenvalues --   -1.20983  -1.07868  -1.07608  -1.04138  -1.00046
 Alpha  occ. eigenvalues --   -0.98312  -0.97347  -0.94095  -0.92907  -0.91157
 Alpha  occ. eigenvalues --   -0.90465  -0.89444  -0.88584  -0.87096  -0.86655
 Alpha  occ. eigenvalues --   -0.84992  -0.84739  -0.81675  -0.76790  -0.76378
 Alpha  occ. eigenvalues --   -0.75434  -0.75201  -0.74986  -0.74879  -0.74076
 Alpha  occ. eigenvalues --   -0.72263  -0.72053  -0.69894  -0.68698  -0.66988
 Alpha  occ. eigenvalues --   -0.65981  -0.64418  -0.64371  -0.64140  -0.63433
 Alpha  occ. eigenvalues --   -0.63139  -0.62296  -0.61854  -0.60597  -0.59754
 Alpha  occ. eigenvalues --   -0.59622  -0.57616  -0.57503  -0.57411  -0.57123
 Alpha  occ. eigenvalues --   -0.56193  -0.55844  -0.55628  -0.55450  -0.55240
 Alpha  occ. eigenvalues --   -0.54797  -0.54523  -0.54145  -0.53868  -0.53385
 Alpha  occ. eigenvalues --   -0.53212  -0.53174  -0.52824  -0.52514  -0.52292
 Alpha  occ. eigenvalues --   -0.51983  -0.51692  -0.51579  -0.51026  -0.50996
 Alpha  occ. eigenvalues --   -0.50890  -0.50686  -0.49713  -0.49161  -0.48863
 Alpha  occ. eigenvalues --   -0.48342  -0.48244  -0.47459  -0.47232  -0.47087
 Alpha  occ. eigenvalues --   -0.46215  -0.45926  -0.44733  -0.44650  -0.43493
 Alpha  occ. eigenvalues --   -0.42772  -0.41882  -0.40772  -0.40555  -0.40272
 Alpha  occ. eigenvalues --   -0.39792  -0.39220  -0.37546  -0.36313  -0.35999
 Alpha  occ. eigenvalues --   -0.35851  -0.33486  -0.33169  -0.33088  -0.31313
 Alpha  occ. eigenvalues --   -0.30798  -0.29588  -0.29507  -0.27865  -0.25895
 Alpha virt. eigenvalues --   -0.02816  -0.00446   0.00578   0.00723   0.02084
 Alpha virt. eigenvalues --    0.02218   0.02613   0.03708   0.04983   0.05526
 Alpha virt. eigenvalues --    0.06538   0.06840   0.07942   0.08430   0.08621
 Alpha virt. eigenvalues --    0.09274   0.09655   0.10386   0.11709   0.12306
 Alpha virt. eigenvalues --    0.12803   0.13261   0.13681   0.13906   0.14478
 Alpha virt. eigenvalues --    0.14574   0.14991   0.15368   0.15529   0.15922
 Alpha virt. eigenvalues --    0.16469   0.16663   0.17433   0.18058   0.18918
 Alpha virt. eigenvalues --    0.18952   0.19572   0.20111   0.20406   0.20736
 Alpha virt. eigenvalues --    0.21415   0.21888   0.22318   0.22485   0.22512
 Alpha virt. eigenvalues --    0.23078   0.23187   0.23284   0.24332   0.25073
 Alpha virt. eigenvalues --    0.26176   0.26896   0.27653   0.27677   0.28706
 Alpha virt. eigenvalues --    0.29854   0.30204   0.30373   0.30552   0.30820
 Alpha virt. eigenvalues --    0.31507   0.32233   0.32661   0.32758   0.32874
 Alpha virt. eigenvalues --    0.33071   0.33594   0.33893   0.34220   0.34690
 Alpha virt. eigenvalues --    0.34866   0.35451   0.35496   0.35866   0.35886
 Alpha virt. eigenvalues --    0.36594   0.36899   0.37219   0.37366   0.38047
 Alpha virt. eigenvalues --    0.38425   0.38725   0.40173   0.40211   0.40317
 Alpha virt. eigenvalues --    0.40434   0.41545   0.41666   0.41925   0.42259
 Alpha virt. eigenvalues --    0.42638   0.42720   0.43574   0.44088   0.44459
 Alpha virt. eigenvalues --    0.45267   0.46758   0.46902   0.47166   0.47649
 Alpha virt. eigenvalues --    0.47776   0.48067   0.48175   0.49117   0.49433
 Alpha virt. eigenvalues --    0.49610   0.50497   0.51206   0.51530   0.51944
 Alpha virt. eigenvalues --    0.52201   0.52647   0.52652   0.52883   0.52914
 Alpha virt. eigenvalues --    0.53170   0.53665   0.54482   0.54593   0.55047
 Alpha virt. eigenvalues --    0.55123   0.55419   0.55927   0.56099   0.56540
 Alpha virt. eigenvalues --    0.56775   0.57314   0.57629   0.57814   0.58233
 Alpha virt. eigenvalues --    0.58739   0.59156   0.59467   0.59972   0.60669
 Alpha virt. eigenvalues --    0.60960   0.61712   0.61777   0.62229   0.62539
 Alpha virt. eigenvalues --    0.63604   0.63889   0.64492   0.64569   0.65081
 Alpha virt. eigenvalues --    0.65706   0.66267   0.66893   0.66947   0.67215
 Alpha virt. eigenvalues --    0.67821   0.68008   0.68399   0.68645   0.69085
 Alpha virt. eigenvalues --    0.69727   0.70409   0.70633   0.71350   0.71569
 Alpha virt. eigenvalues --    0.71601   0.72273   0.72403   0.72873   0.73023
 Alpha virt. eigenvalues --    0.73079   0.73188   0.73544   0.73641   0.74204
 Alpha virt. eigenvalues --    0.74617   0.74644   0.74956   0.75202   0.75471
 Alpha virt. eigenvalues --    0.75561   0.76273   0.76410   0.76769   0.77113
 Alpha virt. eigenvalues --    0.77193   0.77429   0.77812   0.78265   0.79125
 Alpha virt. eigenvalues --    0.79152   0.79293   0.79630   0.79797   0.80418
 Alpha virt. eigenvalues --    0.80825   0.81251   0.81489   0.81826   0.82146
 Alpha virt. eigenvalues --    0.82301   0.82784   0.83138   0.83458   0.83670
 Alpha virt. eigenvalues --    0.84139   0.84436   0.84712   0.85398   0.85445
 Alpha virt. eigenvalues --    0.85772   0.85964   0.86794   0.87385   0.87582
 Alpha virt. eigenvalues --    0.87632   0.87839   0.88495   0.88778   0.89315
 Alpha virt. eigenvalues --    0.90289   0.90691   0.90723   0.91280   0.91822
 Alpha virt. eigenvalues --    0.92081   0.92514   0.92776   0.92900   0.93975
 Alpha virt. eigenvalues --    0.94714   0.95241   0.95709   0.95952   0.96431
 Alpha virt. eigenvalues --    0.97029   0.97159   0.97771   0.97847   0.99265
 Alpha virt. eigenvalues --    0.99534   1.00240   1.00940   1.01890   1.03322
 Alpha virt. eigenvalues --    1.03606   1.04902   1.05716   1.05969   1.07474
 Alpha virt. eigenvalues --    1.08978   1.09719   1.10236   1.11206   1.13238
 Alpha virt. eigenvalues --    1.13845   1.14043   1.14808   1.15972   1.16110
 Alpha virt. eigenvalues --    1.16246   1.16331   1.17254   1.17403   1.18049
 Alpha virt. eigenvalues --    1.18535   1.19635   1.20557   1.20802   1.22594
 Alpha virt. eigenvalues --    1.23139   1.23510   1.25758   1.25913   1.26459
 Alpha virt. eigenvalues --    1.26991   1.27044   1.27608   1.27806   1.28147
 Alpha virt. eigenvalues --    1.28879   1.29343   1.29484   1.30261   1.30543
 Alpha virt. eigenvalues --    1.30589   1.31316   1.31533   1.31713   1.32310
 Alpha virt. eigenvalues --    1.32541   1.33319   1.33665   1.34493   1.34602
 Alpha virt. eigenvalues --    1.35333   1.35428   1.35726   1.36049   1.36178
 Alpha virt. eigenvalues --    1.36577   1.37175   1.37683   1.38301   1.39166
 Alpha virt. eigenvalues --    1.39392   1.39784   1.40797   1.41676   1.42033
 Alpha virt. eigenvalues --    1.42262   1.44226   1.44958   1.45423   1.46393
 Alpha virt. eigenvalues --    1.47234   1.47890   1.50230   1.50996   1.52533
 Alpha virt. eigenvalues --    1.54119   1.54743   1.56148   1.59380   1.59634
 Alpha virt. eigenvalues --    1.60551   1.61289   1.64261   1.65004   1.65804
 Alpha virt. eigenvalues --    1.66615   1.67228   1.67511   1.68376   1.69834
 Alpha virt. eigenvalues --    1.70368   1.71846   1.72578   1.73031   1.73382
 Alpha virt. eigenvalues --    1.73535   1.74183   1.74646   1.74836   1.75523
 Alpha virt. eigenvalues --    1.75893   1.76461   1.77257   1.77572   1.78427
 Alpha virt. eigenvalues --    1.78542   1.78803   1.78985   1.79480   1.79890
 Alpha virt. eigenvalues --    1.80034   1.80514   1.80851   1.81056   1.81306
 Alpha virt. eigenvalues --    1.81536   1.81729   1.81821   1.82062   1.82493
 Alpha virt. eigenvalues --    1.83027   1.83266   1.83435   1.83680   1.83970
 Alpha virt. eigenvalues --    1.84393   1.84461   1.85494   1.85654   1.86251
 Alpha virt. eigenvalues --    1.86434   1.86527   1.86963   1.87716   1.88201
 Alpha virt. eigenvalues --    1.89185   1.89626   1.89880   1.90109   1.90538
 Alpha virt. eigenvalues --    1.90945   1.91323   1.91993   1.92488   1.93938
 Alpha virt. eigenvalues --    1.94677   1.95881   1.96389   1.96498   1.97351
 Alpha virt. eigenvalues --    1.97831   1.98315   1.99272   1.99869   2.00503
 Alpha virt. eigenvalues --    2.01156   2.01448   2.01580   2.02192   2.02671
 Alpha virt. eigenvalues --    2.02728   2.03591   2.03827   2.04280   2.04548
 Alpha virt. eigenvalues --    2.04947   2.05230   2.05470   2.06955   2.07111
 Alpha virt. eigenvalues --    2.07726   2.08661   2.10023   2.10345   2.10467
 Alpha virt. eigenvalues --    2.10895   2.11907   2.12450   2.14147   2.14342
 Alpha virt. eigenvalues --    2.15287   2.15626   2.16455   2.17270   2.17655
 Alpha virt. eigenvalues --    2.18164   2.18235   2.18499   2.19509   2.20003
 Alpha virt. eigenvalues --    2.20499   2.20795   2.21578   2.21702   2.23102
 Alpha virt. eigenvalues --    2.23816   2.24198   2.24524   2.25835   2.26334
 Alpha virt. eigenvalues --    2.28273   2.29918   2.30144   2.30408   2.31464
 Alpha virt. eigenvalues --    2.32062   2.32456   2.32967   2.34242   2.34774
 Alpha virt. eigenvalues --    2.35150   2.36059   2.36555   2.36842   2.37314
 Alpha virt. eigenvalues --    2.37924   2.38201   2.38905   2.39486   2.39669
 Alpha virt. eigenvalues --    2.40109   2.40865   2.41994   2.42671   2.42911
 Alpha virt. eigenvalues --    2.44210   2.45269   2.45482   2.46154   2.47144
 Alpha virt. eigenvalues --    2.47893   2.48179   2.50120   2.50280   2.51242
 Alpha virt. eigenvalues --    2.54052   2.55304   2.57074   2.57197   2.59011
 Alpha virt. eigenvalues --    2.60606   2.60719   2.61507   2.63888   2.64719
 Alpha virt. eigenvalues --    2.66209   2.66289   2.66838   2.67102   2.67388
 Alpha virt. eigenvalues --    2.68296   2.68418   2.70680   2.71125   2.71793
 Alpha virt. eigenvalues --    2.71875   2.72112   2.72150   2.72399   2.72506
 Alpha virt. eigenvalues --    2.72836   2.72952   2.74139   2.74739   2.75079
 Alpha virt. eigenvalues --    2.75802   2.79393   2.79466   2.79850   2.80067
 Alpha virt. eigenvalues --    2.80400   2.80574   2.81864   2.82174   2.82329
 Alpha virt. eigenvalues --    2.84384   2.85246   2.86015   2.86517   2.87307
 Alpha virt. eigenvalues --    2.87538   2.90014   2.91365   2.92675   2.94942
 Alpha virt. eigenvalues --    2.96111   2.97764   2.98466   2.99429   3.01467
 Alpha virt. eigenvalues --    3.02898   3.05548   3.06316   3.06632   3.07422
 Alpha virt. eigenvalues --    3.07750   3.09566   3.09922   3.11915   3.12506
 Alpha virt. eigenvalues --    3.16206   3.16488   3.19517   3.19754   3.20582
 Alpha virt. eigenvalues --    3.21106   3.21174   3.21893   3.23726   3.25714
 Alpha virt. eigenvalues --    3.26504   3.30643   3.31289   3.33097   3.33553
 Alpha virt. eigenvalues --    3.37777   3.39697   3.42016   3.49832   3.50848
 Alpha virt. eigenvalues --    3.52125   3.52574   3.55712   3.59815   3.62056
 Alpha virt. eigenvalues --    3.62895   3.63452   3.64177   3.65720   3.66171
 Alpha virt. eigenvalues --    3.66517   3.67394   3.70836   3.71973   3.72756
 Alpha virt. eigenvalues --    3.76399   3.77897   3.78128   3.84577   3.84727
 Alpha virt. eigenvalues --    3.89436   3.95378   3.95699   4.01857   4.01929
 Alpha virt. eigenvalues --    4.13665
          Condensed to atoms (all electrons):
 Mulliken charges:
               1
     1  Mn  -0.638974
     2  C    0.321297
     3  O   -0.084217
     4  C    0.321419
     5  O   -0.083273
     6  C    0.305138
     7  N   -0.205180
     8  C   -0.038223
     9  C    0.043265
    10  C    0.092847
    11  H    0.059906
    12  H    0.053680
    13  N    0.116795
    14  C   -0.012173
    15  C   -0.163289
    16  C    0.025088
    17  C   -0.024178
    18  C    0.025131
    19  H    0.048553
    20  H    0.075932
    21  N   -0.208623
    22  C   -0.037626
    23  C    0.045309
    24  H    0.060168
    25  C    0.100604
    26  H    0.079203
    27  C    0.105487
    28  H    0.080005
    29  H    0.053345
    30  O   -0.093171
    31  C   -0.178312
    32  C   -0.083715
    33  C   -0.049578
    34  C    0.061856
    35  C   -0.064777
    36  C   -0.018957
    37  C   -0.018470
    38  C    0.016118
    39  C    0.081686
    40  H    0.034846
    41  H    0.043086
    42  H    0.031245
    43  C    0.081934
    44  C    0.015831
    45  C   -0.018250
    46  C   -0.019231
    47  C   -0.062827
    48  C    0.058832
    49  H    0.031176
    50  H    0.043147
    51  H    0.034731
    52  C   -0.050940
    53  H    0.053320
    54  C    0.093827
    55  H    0.061110
    56  H    0.061135
    57  C   -0.003733
    58  C   -0.021113
    59  H    0.054957
    60  H    0.056463
    61  Br  -0.816916
    62  H    0.020114
    63  H    0.047162
 Sum of Mulliken charges =  -0.00000
 Mulliken charges with hydrogens summed into heavy atoms:
               1
     1  Mn  -0.638974
     2  C    0.321297
     3  O   -0.084217
     4  C    0.321419
     5  O   -0.083273
     6  C    0.305138
     7  N   -0.205180
     8  C    0.021683
     9  C    0.096945
    10  C    0.153982
    13  N    0.116795
    14  C   -0.012173
    15  C   -0.163289
    16  C    0.073641
    17  C    0.029167
    18  C    0.101063
    21  N   -0.208623
    22  C    0.022542
    23  C    0.098629
    25  C    0.179806
    27  C    0.185492
    30  O   -0.093171
    31  C   -0.131150
    32  C   -0.063601
    33  C   -0.049578
    34  C    0.061856
    35  C   -0.029932
    36  C    0.024129
    37  C    0.012775
    38  C    0.016118
    39  C    0.081686
    43  C    0.081934
    44  C    0.015831
    45  C    0.012926
    46  C    0.023916
    47  C   -0.028096
    48  C    0.058832
    52  C   -0.050940
    54  C    0.154937
    57  C    0.052730
    58  C    0.033843
    61  Br  -0.816916
 Electronic spatial extent (au):  <R**2>=          24822.8894
 Charge=             -0.0000 electrons
 Dipole moment (field-independent basis, Debye):
    X=            -12.6255    Y=              8.7020    Z=             15.0123  Tot=             21.4592
 Quadrupole moment (field-independent basis, Debye-Ang):
   XX=           -255.7737   YY=           -232.7544   ZZ=           -260.2080
   XY=             30.8302   XZ=             50.5553   YZ=            -17.0352
 Traceless Quadrupole moment (field-independent basis, Debye-Ang):
   XX=             -6.1950   YY=             16.8243   ZZ=            -10.6293
   XY=             30.8302   XZ=             50.5553   YZ=            -17.0352
 Octapole moment (field-independent basis, Debye-Ang**2):
  XXX=           -169.9457  YYY=             54.9127  ZZZ=             59.5232  XYY=            -30.4702
  XXY=            132.9437  XXZ=            222.9892  XZZ=             65.9219  YZZ=              5.3310
  YYZ=             40.0492  XYZ=             69.5808
 Hexadecapole moment (field-independent basis, Debye-Ang**3):
 XXXX=         -18625.6652 YYYY=          -6236.7746 ZZZZ=          -5372.8177 XXXY=            664.5543
 XXXZ=           1143.8604 YYYX=            -45.4694 YYYZ=           -149.0786 ZZZX=            205.7732
 ZZZY=            169.2131 XXYY=          -4257.1437 XXZZ=          -4384.2095 YYZZ=          -1816.1145
 XXYZ=           -124.4332 YYXZ=            110.6027 ZZXY=            254.2447
 N-N= 6.019990598551D+03 E-N=-2.486962269273D+04  KE= 5.399471420304D+03
 PrsmSu:  requested number of processors reduced to:  11 ShMem   1 Linda.
 D1PCM: PCM CHGder 1st derivatives, ID1Alg=3 FixD1E=F DoIter=F DoCFld=F I1PDM=0.
 CoulSu:  requested number of processors reduced to:  10 ShMem   1 Linda.
 CoulSu:  requested number of processors reduced to:  10 ShMem   1 Linda.
[...]
       Virtual   (A) (A) (A) (A) (A) (A) (A) (A) (A) (A) (A) (A)
                 (A) (A) (A) (A) (A) (A) (A) (A) (A) (A) (A) (A)
                 (A) (A) (A) (A) (A) (A) (A) (A) (A) (A) (A) (A)
                 (A) (A) (A) (A) (A) (A) (A) (A) (A) (A) (A) (A)
                 (A) (A) (A) (A) (A) (A) (A) (A) (A) (A) (A) (A)
                 (A) (A) (A) (A) (A) (A) (A) (A) (A) (A) (A) (A)
                 (A) (A) (A) (A) (A) (A) (A) (A) (A) (A) (A) (A)
                 (A) (A) (A) (A) (A) (A) (A) (A) (A) (A) (A) (A)
                 (A) (A) (A) (A) (A) (A) (A) (A) (A) (A) (A) (A)
                 (A) (A) (A) (A) (A) (A) (A) (A) (A) (A) (A) (A)
                 (A) (A) (A) (A) (A) (A) (A) (A) (A) (A) (A) (A)
                 (A) (A) (A) (A) (A) (A) (A) (A) (A) (A) (A) (A)
                 (A) (A) (A) (A) (A) (A) (A) (A) (A) (A) (A) (A)
                 (A) (A) (A) (A) (A) (A) (A) (A) (A) (A) (A) (A)
                 (A) (A) (A) (A) (A) (A) (A) (A) (A) (A) (A) (A)
                 (A) (A) (A) (A) (A) (A) (A) (A) (A) (A) (A) (A)
                 (A) (A) (A) (A) (A) (A) (A) (A) (A) (A) (A) (A)
                 (A) (A) (A) (A) (A) (A) (A) (A) (A) (A) (A) (A)
                 (A) (A) (A) (A) (A) (A) (A) (A) (A) (A) (A) (A)
                 (A) (A) (A) (A) (A) (A) (A) (A) (A) (A) (A) (A)
                 (A) (A) (A) (A) (A) (A) (A) (A) (A) (A) (A) (A)
                 (A) (A) (A) (A) (A) (A) (A) (A) (A) (A) (A) (A)
                 (A) (A) (A) (A) (A) (A) (A) (A) (A) (A) (A) (A)
                 (A) (A) (A) (A) (A) (A) (A) (A) (A) (A) (A) (A)
                 (A) (A) (A) (A) (A) (A) (A) (A) (A) (A) (A) (A)
                 (A) (A) (A) (A) (A) (A) (A) (A) (A) (A) (A) (A)
                 (A) (A) (A) (A) (A) (A) (A) (A) (A) (A) (A) (A)
                 (A) (A) (A) (A) (A) (A) (A) (A) (A) (A) (A) (A)
                 (A) (A) (A) (A) (A) (A) (A) (A) (A) (A) (A) (A)
                 (A) (A) (A) (A) (A) (A) (A) (A) (A) (A) (A) (A)
                 (A) (A) (A) (A) (A) (A) (A) (A) (A) (A) (A) (A)
                 (A) (A) (A) (A) (A) (A) (A) (A) (A) (A) (A) (A)
                 (A) (A) (A) (A) (A) (A) (A) (A) (A) (A) (A) (A)
                 (A) (A) (A) (A) (A) (A) (A) (A) (A) (A) (A) (A)
                 (A) (A) (A) (A) (A) (A) (A) (A) (A) (A) (A) (A)
                 (A) (A) (A) (A) (A) (A) (A) (A) (A) (A) (A) (A)
                 (A) (A) (A) (A) (A) (A) (A) (A) (A) (A) (A) (A)
                 (A) (A) (A) (A) (A) (A) (A) (A) (A) (A) (A) (A)
                 (A) (A) (A) (A) (A) (A) (A) (A) (A) (A) (A) (A)
                 (A) (A) (A) (A) (A) (A) (A) (A) (A) (A) (A) (A)
                 (A) (A) (A) (A) (A) (A) (A) (A) (A) (A) (A) (A)
                 (A) (A) (A) (A) (A) (A) (A) (A) (A) (A) (A) (A)
                 (A) (A) (A) (A) (A) (A) (A) (A) (A) (A) (A) (A)
                 (A) (A) (A) (A) (A) (A) (A) (A) (A) (A) (A) (A)
                 (A) (A) (A) (A) (A) (A) (A) (A) (A) (A) (A) (A)
                 (A) (A) (A) (A) (A) (A) (A) (A) (A) (A) (A) (A)
                 (A) (A) (A) (A) (A) (A) (A) (A) (A) (A) (A) (A)
                 (A) (A) (A) (A) (A) (A) (A) (A) (A) (A) (A) (A)
                 (A) (A) (A) (A) (A) (A) (A) (A) (A) (A)
 The electronic state is 1-A.
 Alpha  occ. eigenvalues -- -482.94785-235.70196 -62.52851 -56.33404 -56.33402
 Alpha  occ. eigenvalues --  -56.33397 -27.47201 -23.53019 -23.52763 -23.52735
 Alpha  occ. eigenvalues --  -19.34624 -19.34055 -19.34035 -14.50878 -14.50789
 Alpha  occ. eigenvalues --  -14.49816 -10.42006 -10.41656 -10.41637 -10.38970
 Alpha  occ. eigenvalues --  -10.37216 -10.37201 -10.36708 -10.36586 -10.36240
 Alpha  occ. eigenvalues --  -10.34836 -10.34765 -10.34677 -10.34642 -10.34082
 Alpha  occ. eigenvalues --  -10.33734 -10.33641 -10.33599 -10.33597 -10.33493
 Alpha  occ. eigenvalues --  -10.33329 -10.33323 -10.33087 -10.32926 -10.32904
 Alpha  occ. eigenvalues --  -10.32785 -10.32629 -10.32396 -10.32363 -10.32162
 Alpha  occ. eigenvalues --  -10.32081 -10.32052 -10.32028 -10.31888 -10.31870
 Alpha  occ. eigenvalues --   -8.69618  -6.51303  -6.51295  -6.51277  -3.26444
 Alpha  occ. eigenvalues --   -2.61811  -2.61811  -2.61797  -2.61790  -2.61787
 Alpha  occ. eigenvalues --   -2.12065  -2.11447  -2.11423  -1.23519  -1.23065
 Alpha  occ. eigenvalues --   -1.23023  -1.08634  -1.08322  -1.05229  -1.00359
 Alpha  occ. eigenvalues --   -0.98611  -0.97696  -0.94566  -0.93379  -0.91448
 Alpha  occ. eigenvalues --   -0.90972  -0.89970  -0.88945  -0.87551  -0.86904
 Alpha  occ. eigenvalues --   -0.85323  -0.85069  -0.81980  -0.76841  -0.75960
 Alpha  occ. eigenvalues --   -0.75698  -0.75537  -0.75483  -0.74460  -0.73972
 Alpha  occ. eigenvalues --   -0.72518  -0.72369  -0.70337  -0.69054  -0.68264
 Alpha  occ. eigenvalues --   -0.66334  -0.65071  -0.65023  -0.64925  -0.64619
 Alpha  occ. eigenvalues --   -0.64441  -0.62824  -0.62268  -0.61173  -0.60319
 Alpha  occ. eigenvalues --   -0.60247  -0.58809  -0.57976  -0.57749  -0.57657
 Alpha  occ. eigenvalues --   -0.56950  -0.56759  -0.56527  -0.56211  -0.56014
 Alpha  occ. eigenvalues --   -0.55744  -0.55221  -0.55076  -0.54956  -0.54548
 Alpha  occ. eigenvalues --   -0.54418  -0.54193  -0.53742  -0.53479  -0.53305
 Alpha  occ. eigenvalues --   -0.52616  -0.52481  -0.52441  -0.51822  -0.51436
 Alpha  occ. eigenvalues --   -0.51337  -0.51261  -0.50789  -0.50599  -0.49399
 Alpha  occ. eigenvalues --   -0.48896  -0.48740  -0.47811  -0.47668  -0.47382
 Alpha  occ. eigenvalues --   -0.46585  -0.46429  -0.45037  -0.44969  -0.43792
 Alpha  occ. eigenvalues --   -0.43354  -0.42437  -0.41701  -0.41214  -0.40767
 Alpha  occ. eigenvalues --   -0.40390  -0.39692  -0.38001  -0.36859  -0.36430
 Alpha  occ. eigenvalues --   -0.36064  -0.33822  -0.33399  -0.32331  -0.31964
 Alpha  occ. eigenvalues --   -0.31852  -0.29156  -0.29136  -0.28952  -0.28070
 Alpha virt. eigenvalues --   -0.03151  -0.00955   0.00033   0.00069   0.01548
 Alpha virt. eigenvalues --    0.01774   0.02386   0.03500   0.03621   0.04398
 Alpha virt. eigenvalues --    0.05440   0.06401   0.06969   0.07355   0.07921
 Alpha virt. eigenvalues --    0.09110   0.09212   0.09955   0.10328   0.10890
 Alpha virt. eigenvalues --    0.11473   0.12467   0.12908   0.13271   0.14026
 Alpha virt. eigenvalues --    0.14261   0.14524   0.15037   0.15278   0.15648
 Alpha virt. eigenvalues --    0.15851   0.16325   0.17233   0.17943   0.18366
 Alpha virt. eigenvalues --    0.18531   0.19173   0.19638   0.20062   0.20399
 Alpha virt. eigenvalues --    0.20722   0.21592   0.21622   0.21941   0.22265
 Alpha virt. eigenvalues --    0.22679   0.23037   0.23235   0.23758   0.24702
 Alpha virt. eigenvalues --    0.25617   0.25691   0.25907   0.27379   0.27485
 Alpha virt. eigenvalues --    0.27917   0.28434   0.29576   0.29787   0.29978
 Alpha virt. eigenvalues --    0.30207   0.30505   0.30710   0.31260   0.31977
 Alpha virt. eigenvalues --    0.32367   0.32604   0.32934   0.33123   0.33761
 Alpha virt. eigenvalues --    0.33870   0.34224   0.34793   0.34969   0.35035
 Alpha virt. eigenvalues --    0.35906   0.36154   0.36585   0.36599   0.36713
 Alpha virt. eigenvalues --    0.37934   0.38294   0.38702   0.39100   0.39924
 Alpha virt. eigenvalues --    0.40065   0.40948   0.41489   0.41930   0.42035
 Alpha virt. eigenvalues --    0.42296   0.42406   0.43814   0.44039   0.44560
 Alpha virt. eigenvalues --    0.44790   0.46435   0.46520   0.46772   0.47026
 Alpha virt. eigenvalues --    0.47577   0.47829   0.48026   0.48807   0.49033
 Alpha virt. eigenvalues --    0.49412   0.50202   0.50637   0.51016   0.51384
 Alpha virt. eigenvalues --    0.51721   0.51877   0.52349   0.52551   0.52654
 Alpha virt. eigenvalues --    0.52965   0.53320   0.53934   0.54448   0.54598
 Alpha virt. eigenvalues --    0.54683   0.54801   0.55384   0.55517   0.55712
 Alpha virt. eigenvalues --    0.56191   0.56519   0.57016   0.57439   0.57824
 Alpha virt. eigenvalues --    0.58060   0.58292   0.58719   0.59329   0.59909
 Alpha virt. eigenvalues --    0.60361   0.60985   0.61356   0.61744   0.61988
 Alpha virt. eigenvalues --    0.62612   0.62722   0.63017   0.63889   0.63917
 Alpha virt. eigenvalues --    0.64341   0.65466   0.65891   0.66385   0.66898
 Alpha virt. eigenvalues --    0.67146   0.67417   0.68043   0.68148   0.68379
 Alpha virt. eigenvalues --    0.69062   0.69254   0.70341   0.70466   0.71048
 Alpha virt. eigenvalues --    0.71405   0.71735   0.71821   0.72175   0.72396
 Alpha virt. eigenvalues --    0.72436   0.72983   0.73250   0.73319   0.73602
 Alpha virt. eigenvalues --    0.74194   0.74377   0.74591   0.74972   0.75207
 Alpha virt. eigenvalues --    0.75510   0.75826   0.76033   0.76380   0.76596
 Alpha virt. eigenvalues --    0.76779   0.77163   0.77399   0.77649   0.77828
 Alpha virt. eigenvalues --    0.78921   0.79059   0.79265   0.79614   0.80149
 Alpha virt. eigenvalues --    0.80430   0.80534   0.80660   0.81095   0.81753
 Alpha virt. eigenvalues --    0.82295   0.82566   0.82642   0.83202   0.83306
 Alpha virt. eigenvalues --    0.84030   0.84398   0.84665   0.84772   0.85085
 Alpha virt. eigenvalues --    0.85172   0.85501   0.85830   0.86273   0.87178
 Alpha virt. eigenvalues --    0.87454   0.87719   0.88051   0.88177   0.88713
 Alpha virt. eigenvalues --    0.89108   0.89231   0.89788   0.90313   0.90541
 Alpha virt. eigenvalues --    0.90741   0.90890   0.91142   0.91422   0.91817
 Alpha virt. eigenvalues --    0.92219   0.92965   0.93818   0.94268   0.94671
 Alpha virt. eigenvalues --    0.95929   0.96428   0.96771   0.97099   0.97364
 Alpha virt. eigenvalues --    0.98006   0.98203   0.99073   1.00379   1.01056
 Alpha virt. eigenvalues --    1.01852   1.02075   1.03475   1.03953   1.04375
 Alpha virt. eigenvalues --    1.06134   1.07899   1.08995   1.09329   1.10675
 Alpha virt. eigenvalues --    1.11652   1.12233   1.13207   1.13596   1.14149
 Alpha virt. eigenvalues --    1.14491   1.14944   1.15730   1.16190   1.16260
 Alpha virt. eigenvalues --    1.17104   1.17700   1.18837   1.19376   1.21114
 Alpha virt. eigenvalues --    1.21557   1.22575   1.24515   1.24719   1.25763
 Alpha virt. eigenvalues --    1.25936   1.26153   1.26920   1.27207   1.27879
 Alpha virt. eigenvalues --    1.28240   1.28803   1.28994   1.29184   1.29813
 Alpha virt. eigenvalues --    1.29944   1.30370   1.30554   1.31037   1.31916
 Alpha virt. eigenvalues --    1.32187   1.32371   1.33322   1.33653   1.33745
 Alpha virt. eigenvalues --    1.34077   1.34549   1.35156   1.35353   1.35798
 Alpha virt. eigenvalues --    1.36070   1.36696   1.36751   1.37115   1.37864
 Alpha virt. eigenvalues --    1.38601   1.39328   1.40186   1.40951   1.41728
 Alpha virt. eigenvalues --    1.42572   1.43103   1.44183   1.45010   1.45813
 Alpha virt. eigenvalues --    1.47027   1.48197   1.48498   1.50378   1.50535
 Alpha virt. eigenvalues --    1.53220   1.53537   1.55559   1.58691   1.59428
 Alpha virt. eigenvalues --    1.60033   1.62478   1.63694   1.64141   1.65254
 Alpha virt. eigenvalues --    1.65398   1.65892   1.66906   1.67390   1.67887
 Alpha virt. eigenvalues --    1.68703   1.70151   1.70885   1.72332   1.72593
 Alpha virt. eigenvalues --    1.72913   1.73087   1.73388   1.73611   1.74117
 Alpha virt. eigenvalues --    1.74367   1.75185   1.75267   1.75838   1.76762
 Alpha virt. eigenvalues --    1.77071   1.77366   1.78233   1.78292   1.78427
 Alpha virt. eigenvalues --    1.78584   1.79308   1.79512   1.79872   1.80122
 Alpha virt. eigenvalues --    1.80784   1.80933   1.81161   1.81267   1.81545
 Alpha virt. eigenvalues --    1.81933   1.82000   1.82275   1.82502   1.83266
 Alpha virt. eigenvalues --    1.83391   1.83715   1.83961   1.84318   1.85177
 Alpha virt. eigenvalues --    1.85553   1.86062   1.86215   1.86906   1.87565
 Alpha virt. eigenvalues --    1.88110   1.88715   1.89066   1.89237   1.90312
 Alpha virt. eigenvalues --    1.90578   1.90740   1.91258   1.91830   1.92565
 Alpha virt. eigenvalues --    1.93129   1.93705   1.95664   1.96034   1.96875
 Alpha virt. eigenvalues --    1.97038   1.97418   1.97934   1.99782   1.99918
 Alpha virt. eigenvalues --    2.00782   2.00975   2.01415   2.02237   2.02755
 Alpha virt. eigenvalues --    2.02858   2.03420   2.03753   2.04064   2.04312
 Alpha virt. eigenvalues --    2.04753   2.05075   2.05306   2.06471   2.06780
 Alpha virt. eigenvalues --    2.07699   2.08570   2.09603   2.10020   2.10360
 Alpha virt. eigenvalues --    2.10600   2.11723   2.12402   2.13802   2.13998
 Alpha virt. eigenvalues --    2.15223   2.15386   2.15983   2.16803   2.17036
 Alpha virt. eigenvalues --    2.17313   2.18016   2.18501   2.18973   2.19411
 Alpha virt. eigenvalues --    2.19477   2.20342   2.20854   2.21406   2.22757
 Alpha virt. eigenvalues --    2.23609   2.23807   2.24463   2.24621   2.25307
 Alpha virt. eigenvalues --    2.26282   2.29330   2.29981   2.30877   2.31152
 Alpha virt. eigenvalues --    2.31251   2.31694   2.32847   2.33793   2.34245
 Alpha virt. eigenvalues --    2.34787   2.35598   2.36199   2.36424   2.37177
 Alpha virt. eigenvalues --    2.37369   2.37840   2.38263   2.38955   2.39061
 Alpha virt. eigenvalues --    2.39965   2.40782   2.42194   2.42359   2.42669
 Alpha virt. eigenvalues --    2.44067   2.45100   2.45335   2.45855   2.46845
 Alpha virt. eigenvalues --    2.47158   2.47819   2.49757   2.49916   2.50799
 Alpha virt. eigenvalues --    2.53671   2.54587   2.56788   2.56850   2.58827
 Alpha virt. eigenvalues --    2.60065   2.60565   2.61260   2.63584   2.64634
 Alpha virt. eigenvalues --    2.65704   2.65984   2.66441   2.66713   2.67294
 Alpha virt. eigenvalues --    2.67668   2.68123   2.69434   2.70038   2.70431
 Alpha virt. eigenvalues --    2.70484   2.70551   2.70732   2.70989   2.72033
 Alpha virt. eigenvalues --    2.72232   2.72652   2.74067   2.74628   2.75663
 Alpha virt. eigenvalues --    2.76501   2.78984   2.79215   2.79515   2.79887
 Alpha virt. eigenvalues --    2.80144   2.80630   2.81805   2.82217   2.84157
 Alpha virt. eigenvalues --    2.85081   2.85351   2.85645   2.86702   2.87148
 Alpha virt. eigenvalues --    2.87552   2.89831   2.91652   2.92968   2.94666
 Alpha virt. eigenvalues --    2.95874   2.97636   2.98433   2.99143   3.01408
 Alpha virt. eigenvalues --    3.02397   3.05115   3.05746   3.05989   3.06619
 Alpha virt. eigenvalues --    3.07065   3.09199   3.09513   3.11748   3.12325
 Alpha virt. eigenvalues --    3.15869   3.16732   3.19307   3.19603   3.20235
 Alpha virt. eigenvalues --    3.20959   3.20980   3.21684   3.22870   3.24771
 Alpha virt. eigenvalues --    3.25277   3.30093   3.30424   3.32792   3.32976
 Alpha virt. eigenvalues --    3.37215   3.38911   3.41608   3.47715   3.50613
 Alpha virt. eigenvalues --    3.51655   3.52559   3.53564   3.57579   3.61576
 Alpha virt. eigenvalues --    3.61771   3.62504   3.63139   3.63839   3.64914
 Alpha virt. eigenvalues --    3.65568   3.66832   3.70141   3.71758   3.72539
 Alpha virt. eigenvalues --    3.75749   3.76646   3.78209   3.79584   3.80366
 Alpha virt. eigenvalues --    3.81745   3.89369   3.92549   3.97299   4.04209
 Alpha virt. eigenvalues --    4.06832
          Condensed to atoms (all electrons):
 Mulliken charges:
               1
     1  Mn  -0.726664
     2  C    0.364793
     3  O   -0.037906
     4  C    0.363127
     5  O   -0.038975
     6  C    0.317813
     7  N   -0.211640
     8  C   -0.034643
     9  C    0.043401
    10  C    0.096678
    11  H    0.065473
    12  H    0.056902
    13  N    0.121384
    14  C   -0.010754
    15  C   -0.155562
    16  C    0.023800
    17  C   -0.024492
    18  C    0.035901
    19  H    0.048784
    20  H    0.073105
    21  N   -0.208808
    22  C   -0.035594
    23  C    0.052042
    24  H    0.063758
    25  C    0.100770
    26  H    0.081269
    27  C    0.104869
    28  H    0.078230
    29  H    0.054379
    30  O   -0.055799
    31  C   -0.184198
    32  C   -0.080951
    33  C   -0.049341
    34  C    0.063364
    35  C   -0.062934
    36  C   -0.018211
    37  C   -0.017817
    38  C    0.018028
    39  C    0.082420
    40  H    0.035868
    41  H    0.043827
    42  H    0.031980
    43  C    0.082282
    44  C    0.017595
    45  C   -0.017900
    46  C   -0.018671
    47  C   -0.059036
    48  C    0.056404
    49  H    0.031840
    50  H    0.043756
    51  H    0.035462
    52  C   -0.057321
    53  H    0.056693
    54  C    0.092473
    55  H    0.061052
    56  H    0.058373
    57  C   -0.001567
    58  C   -0.020281
    59  H    0.057138
    60  H    0.057673
    61  Br  -1.014010
    62  H    0.020877
    63  H    0.049494
 Sum of Mulliken charges =  -0.00000
 Mulliken charges with hydrogens summed into heavy atoms:
               1
     1  Mn  -0.726664
     2  C    0.364793
     3  O   -0.037906
     4  C    0.363127
     5  O   -0.038975
     6  C    0.317813
     7  N   -0.211640
     8  C    0.030831
     9  C    0.100303
    10  C    0.155051
    13  N    0.121384
    14  C   -0.010754
    15  C   -0.155562
    16  C    0.072585
    17  C    0.029887
    18  C    0.109006
    21  N   -0.208808
    22  C    0.028164
    23  C    0.108736
    25  C    0.182039
    27  C    0.183099
    30  O   -0.055799
    31  C   -0.134704
    32  C   -0.060075
    33  C   -0.049341
    34  C    0.063364
    35  C   -0.027066
    36  C    0.025616
    37  C    0.014164
    38  C    0.018028
    39  C    0.082420
    43  C    0.082282
    44  C    0.017595
    45  C    0.013941
    46  C    0.025084
    47  C   -0.023575
    48  C    0.056404
    52  C   -0.057321
    54  C    0.153524
    57  C    0.056105
    58  C    0.036857
    61  Br  -1.014010
 Electronic spatial extent (au):  <R**2>=          26032.5418
 Charge=             -0.0000 electrons
 Dipole moment (field-independent basis, Debye):
    X=            -23.3420    Y=             -0.9140    Z=             16.5632  Tot=             28.6360
 Quadrupole moment (field-independent basis, Debye-Ang):
   XX=           -333.6717   YY=           -217.4278   ZZ=           -256.5164
   XY=             -8.7389   XZ=             72.2345   YZ=              3.0418
 Traceless Quadrupole moment (field-independent basis, Debye-Ang):
   XX=            -64.4664   YY=             51.7775   ZZ=             12.6889
   XY=             -8.7389   XZ=             72.2345   YZ=              3.0418
 Octapole moment (field-independent basis, Debye-Ang**2):
  XXX=           -769.7847  YYY=              2.6398  ZZZ=             88.5639  XYY=            -58.8245
  XXY=            -57.8925  XXZ=            348.2287  XZZ=            111.1920  YZZ=              8.7233
  YYZ=             34.1397  XYZ=            -11.8191
 Hexadecapole moment (field-independent basis, Debye-Ang**3):
 XXXX=         -23586.7667 YYYY=          -5649.8243 ZZZZ=          -5199.1392 XXXY=           -363.2265
 XXXZ=           2019.4562 YYYX=             12.0781 YYYZ=             29.3678 ZZZX=            509.6208
 ZZZY=             41.1845 XXYY=          -4250.3986 XXZZ=          -4831.5750 YYZZ=          -2064.3789
 XXYZ=            -58.7397 YYXZ=            -65.6721 ZZXY=            -36.4852
 N-N= 5.875958133752D+03 E-N=-2.457831137671D+04  KE= 5.399352087813D+03


 THERE IS AN OLD, OLD RECIPE IN MAINE FOR STEWING COOT. PLACE THE
 BIRD IN A KETTLE OF WATER WITH A RED BUILDING BRICK FREE OF MORTAR AND
 BLEMISHES. PARBOIL THE COOT AND BRICK TOGETHER FOR THREE HOURS.
 POUR OFF THE WATER, REFILL THE KETTLE, AND AGAIN PARBOIL FOR THREE HOURS.
 ONCE AGAIN POUR OFF THE WATER, FOR THE LAST TIME ADD FRESH WATER,
 AND LET THE COOT AND BRICK SIMMER TOGETHER OVERNIGHT. IN THE MORNING,
 THROW AWAY THE COOT AND EAT THE BRICK.
 Error termination request processed by link 9999.
 Error termination via Lnk1e in /home1/apps/gaussian/16rA.03/g16/l9999.exe at Sat Feb 18 06:26:26 2023.
 Job cpu time:      12 days  0 hours  0 minutes  0.6 seconds.
 Elapsed time:       1 days  0 hours 31 minutes 30.8 seconds.
 File lengths (MBytes):  RWF=   1072 Int=      0 D2E=      0 Chk=     50 Scr=      1
