 Entering Gaussian System, Link 0=g16
 Initial command:
 /home1/apps/gaussian/16rA.03/g16/l1.exe "/tmp/Gau-220386.inp" -scrdir="/tmp/"
 Entering Link 1 = /home1/apps/gaussian/16rA.03/g16/l1.exe PID=    220388.
  
 Copyright (c) 1988,1990,1992,1993,1995,1998,2003,2009,2016,
            Gaussian, Inc.  All Rights Reserved.
  
 This is part of the Gaussian(R) 16 program.  It is based on
 the Gaussian(R) 09 system (copyright 2009, Gaussian, Inc.),
 the Gaussian(R) 03 system (copyright 2003, Gaussian, Inc.),
 the Gaussian(R) 98 system (copyright 1998, Gaussian, Inc.),
 the Gaussian(R) 94 system (copyright 1995, Gaussian, Inc.),
 the Gaussian 92(TM) system (copyright 1992, Gaussian, Inc.),
 the Gaussian 90(TM) system (copyright 1990, Gaussian, Inc.),
 the Gaussian 88(TM) system (copyright 1988, Gaussian, Inc.),
 the Gaussian 86(TM) system (copyright 1986, Carnegie Mellon
 University), and the Gaussian 82(TM) system (copyright 1983,
 Carnegie Mellon University). Gaussian is a federally registered
 trademark of Gaussian, Inc.
  
 This software contains proprietary and confidential information,
 including trade secrets, belonging to Gaussian, Inc.
  
 This software is provided under written license and may be
 used, copied, transmitted, or stored only in accord with that
 written license.
  
 The following legend is applicable only to US Government
 contracts under FAR:
  
                    RESTRICTED RIGHTS LEGEND
  
 Use, reproduction and disclosure by the US Government is
 subject to restrictions as set forth in subparagraphs (a)
 and (c) of the Commercial Computer Software - Restricted
 Rights clause in FAR 52.227-19.
  
 Gaussian, Inc.
 340 Quinnipiac St., Bldg. 40, Wallingford CT 06492
  
  
 ---------------------------------------------------------------
 Warning -- This program may not be used in any manner that
 competes with the business of Gaussian, Inc. or will provide
 assistance to any competitor of Gaussian, Inc.  The licensee
 of this program is prohibited from giving any competitor of
 Gaussian, Inc. access to this program.  By using this program,
 the user acknowledges that Gaussian, Inc. is engaged in the
 business of creating and licensing software in the field of
 computational chemistry and represents and warrants to the
 licensee that it is not a competitor of Gaussian, Inc. and that
 it will not use this program in any manner prohibited above.
 ---------------------------------------------------------------
  

 Cite this work as:
 Gaussian 16, Revision A.03,
 M. J. Frisch, G. W. Trucks, H. B. Schlegel, G. E. Scuseria, 
 M. A. Robb, J. R. Cheeseman, G. Scalmani, V. Barone, 
 G. A. Petersson, H. Nakatsuji, X. Li, M. Caricato, A. V. Marenich, 
 J. Bloino, B. G. Janesko, R. Gomperts, B. Mennucci, H. P. Hratchian, 
 J. V. Ortiz, A. F. Izmaylov, J. L. Sonnenberg, D. Williams-Young, 
 F. Ding, F. Lipparini, F. Egidi, J. Goings, B. Peng, A. Petrone, 
 T. Henderson, D. Ranasinghe, V. G. Zakrzewski, J. Gao, N. Rega, 
 G. Zheng, W. Liang, M. Hada, M. Ehara, K. Toyota, R. Fukuda, 
 J. Hasegawa, M. Ishida, T. Nakajima, Y. Honda, O. Kitao, H. Nakai, 
 T. Vreven, K. Throssell, J. A. Montgomery, Jr., J. E. Peralta, 
 F. Ogliaro, M. J. Bearpark, J. J. Heyd, E. N. Brothers, K. N. Kudin, 
 V. N. Staroverov, T. A. Keith, R. Kobayashi, J. Normand, 
 K. Raghavachari, A. P. Rendell, J. C. Burant, S. S. Iyengar, 
 J. Tomasi, M. Cossi, J. M. Millam, M. Klene, C. Adamo, R. Cammi, 
 J. W. Ochterski, R. L. Martin, K. Morokuma, O. Farkas, 
 J. B. Foresman, and D. J. Fox, Gaussian, Inc., Wallingford CT, 2016.
 
 ******************************************
 Gaussian 16:  ES64L-G16RevA.03 25-Dec-2016
                17-Feb-2023 
 ******************************************
 %Chk=checkpoint.chk
 %NProcShared=12
 Will use up to   12 processors via shared memory.
 -----------------------------------------------------
 #wB97XD Gen Opt=(QST3) SCRF=(Solvent=TetraHydroFuran)
 -----------------------------------------------------
 1/5=1,18=20,26=3,27=203,38=1/1,3;
 2/9=110,12=2,17=6,18=5,40=1/2;
 3/5=7,11=2,25=1,30=1,70=2201,71=1,72=20,74=-58/1,2,3;
 4//1;
 5/5=2,38=5,53=20/2;
 6/7=2,8=2,9=2,10=2,28=1/1;
 7//1,2,3,16;
 1/5=1,18=20,26=3,27=203/3(2);
 2/9=110/2;
 99//99;
 2/9=110/2;
 3/5=7,6=1,11=2,25=1,30=1,70=2205,71=1,72=20,74=-58,82=7/1,2,3;
 4/5=5,16=3,69=1/1;
 5/5=2,38=5,53=20/2;
 7//1,2,3,16;
 1/5=1,18=20,26=3,27=203/3(-5);
 2/9=110/2;
 6/7=2,8=2,9=2,10=2,19=2,28=1/1;
 99/9=1/99;
 ------------------------------------
 Anthracene Transition State Reactant
 ------------------------------------
 Symbolic Z-matrix:
 Charge =  0 Multiplicity = 1
 Mn                   -1.0194   -0.13282  -1.30041 
 C                    -1.95084   1.09527  -2.29845 
 O                    -2.50101   1.87539  -2.92239 
 C                    -1.94096  -1.55093  -2.01671 
 O                    -2.47772  -2.45176  -2.46467 
 C                     0.20025  -0.27236  -2.6431 
 N                     0.04927  -1.53221  -0.03083 
 C                     0.07866  -3.04556   1.8282 
 C                     1.46702  -3.1228    1.77993 
 C                     1.37634  -1.67638  -0.11513 
 H                    -0.49205  -3.5931    2.57846 
 H                     2.01871  -3.71611   2.51212 
 N                    -2.37065   0.02942   0.19031 
 C                    -3.16697   0.13023   1.0198 
 C                    -4.10539   0.2658    2.09209 
 C                    -3.6202    0.43566   3.39952 
 C                    -4.52704   0.57079   4.44399 
 C                    -5.48203   0.23058   1.82486 
 H                    -2.54534   0.46071   3.58681 
 H                    -5.82775   0.09615   0.79488 
 N                     0.05018   1.50245  -0.35369 
 C                     0.08073   3.37421   1.14383 
 C                     1.47006   3.42805   1.09346 
 H                    -0.49002   4.07266   1.75603 
 C                    -0.58809  -2.23239   0.92237 
 H                    -1.67251  -2.14107   0.96102 
 C                    -0.58735   2.39419   0.42298 
 H                    -1.67305   2.32336   0.46813 
 H                    -4.16287   0.70328   5.46409 
 O                     0.94147  -0.36186  -3.51126 
 C                     3.71034   0.05692   0.59661 
 C                     6.44285   0.00195   0.07986 
 C                     2.14993  -2.41932   0.78562 
 C                     3.63318  -2.42875   0.67238 
 C                     4.33237  -3.60918   0.65808 
 C                     5.74721  -3.62943   0.48325 
 C                     6.44286  -2.47015   0.28898 
 C                     5.76733  -1.20725   0.29051 
 C                     4.35206  -1.18133   0.52939 
 H                     3.79554  -4.55679   0.74485 
 H                     6.26618  -4.58974   0.47691 
 H                     7.52231  -2.48926   0.12265 
 C                     4.35394   1.25516   0.28141 
 C                     5.76945   1.23001   0.04342 
 C                     6.44775   2.46555  -0.21061 
 C                     5.75436   3.64152  -0.25402 
 C                     4.33929   3.65908  -0.08147 
 C                     3.63726   2.50702   0.16895 
 H                     7.52743   2.44868  -0.37582 
 H                     6.27529   4.58008  -0.45221 
 H                     3.80437   4.6056   -0.18931 
 C                     2.15352   2.52607   0.2752 
 H                     2.02229   4.15802   1.68899 
 C                     1.37923   1.61496  -0.45427 
 H                     1.87683   0.94259  -1.1522 
 H                     1.87309  -1.17143  -0.94303 
 C                    -5.89955   0.53687   4.18594 
 C                    -6.37363   0.36773   2.88435 
 H                    -7.44706   0.34214   2.68994 
 H                    -6.60706   0.64379   5.01079 
 Br                   -5.87537  -0.28615  -1.89241 
 H                     7.52454  -0.01473  -0.07653 
 H                     2.66679   0.08836   0.89635 
 
 Add virtual bond connecting atoms Br61       and H20        Dist= 5.13D+00.
 -----------------------------------
 Anthracene Transition State Product
 -----------------------------------
 Symbolic Z-matrix:
 Charge =  0 Multiplicity = 1
 Mn                   -1.44286   0.16026  -2.01412 
 C                    -2.20443   1.54882  -2.90891 
 O                    -2.68366   2.42731  -3.46349 
 C                    -2.21304  -1.07612  -3.10367 
 O                    -2.69804  -1.85971  -3.78172 
 C                    -0.01408   0.23546  -3.09485 
 N                    -0.60049  -1.44099  -0.81185 
 C                    -0.82342  -3.27125   0.71581 
 C                     0.55737  -3.36677   0.85296 
 C                     0.7252   -1.5913   -0.72767 
 H                    -1.48955  -3.94449   1.25661 
 H                     1.00241  -4.09964   1.52935 
 N                     0.0775   -0.17244   2.4041 
 C                    -1.05369  -0.19765   2.64732 
 C                    -2.45976  -0.23136   2.94445 
 C                    -3.12645  -1.4621    3.01383 
 C                    -4.49389  -1.48788   3.26678 
 C                    -3.15853   0.96659   3.1448 
 H                    -2.5722   -2.38909   2.86463 
 H                    -2.62937   1.91849   3.09601 
 N                    -0.59083   1.56154  -0.58857 
 C                    -0.80429   3.1413    1.19825 
 C                     0.5769    3.20654   1.34817 
 H                    -1.46646   3.7285    1.83564 
 C                    -1.3638   -2.28301  -0.09733 
 H                    -2.44255  -2.14076  -0.17604 
 C                    -1.34964   2.291     0.24463 
 H                    -2.42913   2.16919   0.14486 
 H                    -5.01736  -2.44419   3.31559 
 O                     0.86165   0.2873   -3.83871 
 C                     2.91235  -0.04746   0.58557 
 C                     5.69235  -0.04273   0.41158 
 C                     1.36924  -2.49754   0.12252 
 C                     2.85402  -2.5063    0.21569 
 C                     3.56205  -3.67493   0.08887 
 C                     4.98786  -3.68132   0.09599 
 C                     5.69088  -2.51399   0.19056 
 C                     5.00769  -1.26191   0.32192 
 C                     3.57322  -1.26107   0.38259 
 H                     3.02896  -4.61681  -0.06081 
 H                     5.51371  -4.63251  -0.00729 
 H                     6.783    -2.51728   0.16154 
 C                     3.58071   1.17889   0.56648 
 C                     5.01522   1.18024   0.5065 
 C                     5.70587   2.43375   0.56536 
 C                     5.00976   3.60611   0.64834 
 C                     3.58394   3.60941   0.64 
 C                     2.86897   2.43926   0.58848 
 H                     6.79801   2.43509   0.53708 
 H                     5.54131   4.55882   0.69009 
 H                     3.05653   4.56629   0.63458 
 C                     1.38429   2.45343   0.49431 
 H                     1.02578   3.82526   2.12808 
 C                     0.73572   1.68987  -0.48314 
 H                     1.34033   1.15471  -1.214 
 H                     1.33286  -0.9558   -1.37019 
 C                    -5.19354  -0.29487   3.45284 
 C                    -4.52569   0.92909   3.39758 
 H                    -5.07398   1.86057   3.54798 
 H                    -6.26798  -0.31941   3.64516 
 Br                   -3.72263   0.07153  -0.71897 
 H                     1.84487  -0.05936   0.78995 
 H                     6.78538  -0.04496   0.39399 
 
 Add virtual bond connecting atoms N7         and Mn1        Dist= 4.11D+00.
 Add virtual bond connecting atoms N21        and Mn1        Dist= 4.11D+00.
 Add virtual bond connecting atoms H11        and H19        Dist= 4.70D+00.
 Add virtual bond connecting atoms H24        and H20        Dist= 4.71D+00.
 Add virtual bond connecting atoms H62        and N13        Dist= 4.53D+00.
 -----------------------------------------
 Anthracene Transition State Initial Guess
 -----------------------------------------
 Symbolic Z-matrix:
 Charge =  0 Multiplicity = 1
 Mn                   -0.96769  -0.17758  -2.23619 
 C                    -1.66804   1.01596  -3.43692 
 O                    -1.99426   1.7715   -4.23236 
 C                    -1.70006  -1.58697  -3.15123 
 O                    -2.03711  -2.49573  -3.76059 
 C                     0.44765  -0.31475  -3.28994 
 N                    -0.22992  -1.6103   -0.94323 
 C                    -0.66989  -3.35598   0.63942 
 C                     0.6578   -3.34133   1.06251 
 C                     1.06068  -1.68603  -0.60628 
 H                    -1.39965  -4.03335   1.09062 
 H                     0.98805  -3.99172   1.87675 
 N                    -1.96003   0.06681   0.23918 
 C                    -2.31948   0.1918    1.33325 
 C                    -2.81639   0.33267   2.68088 
 C                    -1.97018   0.75885   3.70874 
 C                    -2.47613   0.90824   5.00187 
 C                    -4.15946   0.04852   2.94663 
 H                    -0.92843   0.97818   3.48757 
 H                    -4.80279  -0.28209   2.13058 
 N                    -0.1966    1.44616  -1.22934 
 C                    -0.62727   3.41276   0.06986 
 C                     0.70481   3.47199   0.47227 
 H                    -1.3566    4.14084   0.42688 
 C                    -1.07727  -2.46914  -0.3453 
 H                    -2.12509  -2.4218   -0.65429 
 C                    -1.04163   2.38125  -0.76111 
 H                    -2.09256   2.27078  -1.04173 
 H                    -1.82428   1.24475   5.80883 
 O                     1.32998  -0.41967  -4.02589 
 C                     3.04346   0.06633   0.76348 
 C                     5.80968   0.07467   1.08889 
 C                     1.56429  -2.48735   0.42698 
 C                     3.01046  -2.43228   0.7886 
 C                     3.72173  -3.59117   0.97366 
 C                     5.12506  -3.57466   1.24156 
 C                     5.81312  -2.39607   1.27656 
 C                     5.1286   -1.15047   1.08205 
 C                     3.70412  -1.15988   0.88613 
 H                     3.21512  -4.55565   0.87516 
 H                     5.64867  -4.52353   1.38442 
 H                     6.89494  -2.38079   1.44318 
 C                     3.7263    1.28326   0.65643 
 C                     5.15025   1.28852   0.85501 
 C                     5.85522   2.53873   0.82105 
 C                     5.18579   3.70131   0.5724 
 C                     3.78223   3.69048   0.30439 
 C                     3.05272   2.52677   0.32877 
 H                     6.93705   2.5385    0.99073 
 H                     5.72501   4.65296   0.54434 
 H                     3.29225   4.62923   0.03268 
 C                     1.60652   2.53365  -0.03406 
 H                     1.03996   4.23641   1.1799 
 C                     1.09557   1.58082  -0.92635 
 H                     1.7826    0.88886  -1.41065 
 H                     1.75298  -1.07434  -1.18594 
 C                    -3.81183   0.62988   5.26887 
 C                    -4.65102   0.19669   4.24537 
 H                    -5.69543  -0.0207    4.46056 
 H                    -4.20456   0.75086   6.28638 
 Br                   -3.99905  -0.09452  -2.0832 
 H                     6.89075   0.08243   1.26544 
 H                     1.95566   0.0739    0.73456 
 

 GradGradGradGradGradGradGradGradGradGradGradGradGradGradGradGradGradGrad
 Berny optimization.
 Initialization pass.
                           ----------------------------
                           !    Initial Parameters    !
                           ! (Angstroms and Degrees)  !
 --------------------------                            --------------------------
 ! Name  Definition         TS        Reactant Product Derivative Info.         !
 --------------------------------------------------------------------------------
 ! R1    R(1,2)             1.8322    1.8363    1.819  estimate D2E/DX2         !
 ! R2    R(1,4)             1.8331    1.8367    1.819  estimate D2E/DX2         !
 ! R3    R(1,6)             1.7699    1.8193    1.7931 estimate D2E/DX2         !
 ! R4    R(1,7)             2.0661    2.1708    2.1723 estimate D2E/DX2         !
 ! R5    R(1,13)            2.678     2.0185    4.6843 estimate D2E/DX2         !
 ! R6    R(1,21)            2.0603    2.1713    2.173  estimate D2E/DX2         !
 ! R7    R(1,61)            3.0364    4.8943    2.6235 estimate D2E/DX2         !
 ! R8    R(2,3)             1.1445    1.1404    1.1441 estimate D2E/DX2         !
 ! R9    R(4,5)             1.1449    1.1403    1.1441 estimate D2E/DX2         !
 ! R10   R(6,30)            1.1537    1.145     1.1502 estimate D2E/DX2         !
 ! R11   R(7,10)            1.336     1.3375    1.3368 estimate D2E/DX2         !
 ! R12   R(7,25)            1.3465    1.3435    1.3425 estimate D2E/DX2         !
 ! R13   R(8,9)             1.3936    1.3913    1.3909 estimate D2E/DX2         !
 ! R14   R(8,11)            1.0931    1.0901    1.0906 estimate D2E/DX2         !
 ! R15   R(8,25)            1.3864    1.3879    1.3892 estimate D2E/DX2         !
 ! R16   R(9,12)            1.0932    1.092     1.0921 estimate D2E/DX2         !
 ! R17   R(9,33)            1.3982    1.3964    1.3958 estimate D2E/DX2         !
 ! R18   R(10,33)           1.4012    1.4006    1.3996 estimate D2E/DX2         !
 ! R19   R(10,56)           1.0906    1.0896    1.089  estimate D2E/DX2         !
 ! R20   R(11,19)           5.5752    4.6547    2.4854 estimate D2E/DX2         !
 ! R21   R(13,14)           1.1584    1.1543    1.1573 estimate D2E/DX2         !
 ! R22   R(13,62)           8.9101    9.8989    2.3962 estimate D2E/DX2         !
 ! R23   R(14,15)           1.4432    1.4314    1.4375 estimate D2E/DX2         !
 ! R24   R(15,16)           1.3979    1.4049    1.4014 estimate D2E/DX2         !
 ! R25   R(15,18)           1.3983    1.4028    1.4013 estimate D2E/DX2         !
 ! R26   R(16,17)           1.3966    1.3898    1.3909 estimate D2E/DX2         !
 ! R27   R(16,19)           1.0873    1.0913    1.0903 estimate D2E/DX2         !
 ! R28   R(17,29)           1.0906    1.0912    1.0913 estimate D2E/DX2         !
 ! R29   R(17,57)           1.3903    1.397     1.3955 estimate D2E/DX2         !
 ! R30   R(18,20)           1.0905    1.0947    1.0902 estimate D2E/DX2         !
 ! R31   R(18,58)           1.3965    1.3915    1.3908 estimate D2E/DX2         !
 ! R32   R(20,24)           5.8601    6.7252    2.4934 estimate D2E/DX2         !
 ! R33   R(20,61)           4.2939    2.7148    4.3773 estimate D2E/DX2         !
 ! R34   R(21,27)           1.3445    1.3435    1.3424 estimate D2E/DX2         !
 ! R35   R(21,54)           1.334     1.3376    1.3369 estimate D2E/DX2         !
 ! R36   R(22,23)           1.3928    1.3913    1.3908 estimate D2E/DX2         !
 ! R37   R(22,24)           1.0906    1.0901    1.0907 estimate D2E/DX2         !
 ! R38   R(22,27)           1.3879    1.3879    1.3892 estimate D2E/DX2         !
 ! R39   R(23,52)           1.3964    1.3965    1.3958 estimate D2E/DX2         !
 ! R40   R(23,53)           1.0943    1.092     1.092  estimate D2E/DX2         !
 ! R41   R(25,26)           1.0935    1.0889    1.0909 estimate D2E/DX2         !
 ! R42   R(27,28)           1.0933    1.0889    1.0909 estimate D2E/DX2         !
 ! R43   R(31,39)           1.3982    1.3963    1.3967 estimate D2E/DX2         !
 ! R44   R(31,43)           1.3995    1.3962    1.3968 estimate D2E/DX2         !
 ! R45   R(31,62)           3.8799    3.8738    1.0869 estimate D2E/DX2         !
 ! R46   R(31,63)           1.0882    1.0862    3.8778 estimate D2E/DX2         !
 ! R47   R(32,38)           1.4017    1.401     1.4011 estimate D2E/DX2         !
 ! R48   R(32,44)           1.4011    1.401     1.4011 estimate D2E/DX2         !
 ! R49   R(32,62)           1.0954    1.0931    3.8661 estimate D2E/DX2         !
 ! R50   R(32,63)           3.8703    3.8643    1.0932 estimate D2E/DX2         !
 ! R51   R(33,34)           1.4917    1.4876    1.4877 estimate D2E/DX2         !
 ! R52   R(34,35)           1.3723    1.372     1.3723 estimate D2E/DX2         !
 ! R53   R(34,39)           1.4525    1.4468    1.4477 estimate D2E/DX2         !
 ! R54   R(35,36)           1.4288    1.4257    1.4258 estimate D2E/DX2         !
 ! R55   R(35,40)           1.0939    1.0926    1.0926 estimate D2E/DX2         !
 ! R56   R(36,37)           1.3652    1.3659    1.366  estimate D2E/DX2         !
 ! R57   R(36,41)           1.0931    1.0916    1.0918 estimate D2E/DX2         !
 ! R58   R(37,38)           1.4345    1.4322    1.4324 estimate D2E/DX2         !
 ! R59   R(37,42)           1.0947    1.0924    1.0925 estimate D2E/DX2         !
 ! R60   R(38,39)           1.4379    1.4355    1.4358 estimate D2E/DX2         !
 ! R61   R(43,44)           1.4377    1.4356    1.4358 estimate D2E/DX2         !
 ! R62   R(43,48)           1.4517    1.4469    1.4476 estimate D2E/DX2         !
 ! R63   R(44,45)           1.4357    1.4322    1.4324 estimate D2E/DX2         !
 ! R64   R(45,46)           1.3644    1.3659    1.366  estimate D2E/DX2         !
 ! R65   R(45,49)           1.0951    1.0924    1.0925 estimate D2E/DX2         !
 ! R66   R(46,47)           1.429     1.4257    1.4258 estimate D2E/DX2         !
 ! R67   R(46,50)           1.0942    1.0916    1.0918 estimate D2E/DX2         !
 ! R68   R(47,48)           1.3737    1.3722    1.3723 estimate D2E/DX2         !
 ! R69   R(47,51)           1.0932    1.0926    1.0926 estimate D2E/DX2         !
 ! R70   R(48,52)           1.491     1.4877    1.4877 estimate D2E/DX2         !
 ! R71   R(52,54)           1.4018    1.4006    1.3997 estimate D2E/DX2         !
 ! R72   R(54,55)           1.0888    1.0894    1.0891 estimate D2E/DX2         !
 ! R73   R(57,58)           1.3926    1.3955    1.3954 estimate D2E/DX2         !
 ! R74   R(57,60)           1.0974    1.092     1.0918 estimate D2E/DX2         !
 ! R75   R(58,59)           1.0883    1.0912    1.0913 estimate D2E/DX2         !
 ! A1    A(2,1,4)          91.2033   92.8602   92.6906 estimate D2E/DX2         !
 ! A2    A(2,1,6)          88.0505   89.4398   90.2928 estimate D2E/DX2         !
 ! A3    L(2,1,7,4,-1)    176.7232  181.5632  182.3854 estimate D2E/DX2         !
 ! A4    L(2,1,7,4,-2)    180.0866  182.4131  183.4865 estimate D2E/DX2         !
 ! A5    A(2,1,13)        113.8707   90.4629  130.8496 estimate D2E/DX2         !
 ! A6    A(2,1,21)         87.1301   89.035    89.6911 estimate D2E/DX2         !
 ! A7    A(2,1,61)         68.5045   56.7659   84.5395 estimate D2E/DX2         !
 ! A8    A(4,1,6)          87.8626   89.3883   90.279  estimate D2E/DX2         !
 ! A9    A(4,1,7)          85.5199   88.703    89.6949 estimate D2E/DX2         !
 ! A10   A(4,1,13)        112.5524   90.8132  130.8505 estimate D2E/DX2         !
 ! A11   L(4,1,21,2,-1)   178.3334  181.8953  182.3816 estimate D2E/DX2         !
 ! A12   L(4,1,21,2,-2)   179.0529  177.8035  176.5025 estimate D2E/DX2         !
 ! A13   A(4,1,61)         69.3476   55.3068   84.5361 estimate D2E/DX2         !
 ! A14   A(6,1,7)          91.9081   92.9897   93.1816 estimate D2E/DX2         !
 ! A15   L(6,1,13,2,-1)   201.9212  179.9027  221.1424 estimate D2E/DX2         !
 ! A16   L(6,1,13,2,-2)   203.2108  180.197   245.2912 estimate D2E/DX2         !
 ! A17   A(6,1,21)         93.0237   92.827    93.2059 estimate D2E/DX2         !
 ! A18   L(6,1,61,2,-1)   156.555   146.2057  174.8323 estimate D2E/DX2         !
 ! A19   L(6,1,61,2,-2)   155.0259  133.7926  174.5395 estimate D2E/DX2         !
 ! A20   A(7,1,13)         67.49     87.1023   45.5557 estimate D2E/DX2         !
 ! A21   A(7,1,21)         96.1448   89.3121   87.7196 estimate D2E/DX2         !
 ! A22   A(7,1,61)        110.1166  122.615    92.2245 estimate D2E/DX2         !
 ! A23   A(13,1,21)        67.3597   86.9744   45.554  estimate D2E/DX2         !
 ! A24   A(21,1,61)       109.1149  124.4079   92.2164 estimate D2E/DX2         !
 ! A25   L(1,2,3,18,-1)   185.1891  181.2299  179.5621 estimate D2E/DX2         !
 ! A26   L(1,2,3,22,-1)   180.2299  179.0518  179.5279 estimate D2E/DX2         !
 ! A27   L(1,2,3,18,-2)   176.1515  178.8291  179.7608 estimate D2E/DX2         !
 ! A28   L(1,2,3,22,-2)   173.7472  178.5473  180.1171 estimate D2E/DX2         !
 ! A29   L(1,4,5,8,-1)    179.6318  178.9781  179.5473 estimate D2E/DX2         !
 ! A30   L(1,4,5,8,-2)    186.623   181.8662  179.8672 estimate D2E/DX2         !
 ! A31   L(1,6,30,10,-1)  182.3227  181.4747  182.6714 estimate D2E/DX2         !
 ! A32   L(1,6,30,10,-2)  177.5858  178.99    178.0594 estimate D2E/DX2         !
 ! A33   A(1,7,10)        122.8253  121.4044  120.1501 estimate D2E/DX2         !
 ! A34   A(1,7,25)        119.7014  121.1552  122.4403 estimate D2E/DX2         !
 ! A35   A(10,7,25)       117.3711  117.3369  117.3751 estimate D2E/DX2         !
 ! A36   A(9,8,11)        121.1469  121.2244  121.0019 estimate D2E/DX2         !
 ! A37   A(9,8,25)        119.2657  119.2911  119.5213 estimate D2E/DX2         !
 ! A38   A(11,8,25)       119.5632  119.4687  119.4588 estimate D2E/DX2         !
 ! A39   A(8,9,12)        120.5105  120.7321  120.7784 estimate D2E/DX2         !
 ! A40   A(8,9,33)        119.0859  118.9955  118.8861 estimate D2E/DX2         !
 ! A41   A(12,9,33)       120.403   120.2701  120.331  estimate D2E/DX2         !
 ! A42   A(7,10,33)       124.4431  124.3771  124.5675 estimate D2E/DX2         !
 ! A43   A(7,10,56)       116.5747  116.7619  116.7806 estimate D2E/DX2         !
 ! A44   A(33,10,56)      118.9821  118.8603  118.6518 estimate D2E/DX2         !
 ! A45   A(8,11,19)        64.1526   86.7094  101.5699 estimate D2E/DX2         !
 ! A46   L(1,13,14,8,-1)  179.5487  181.4217  143.4264 estimate D2E/DX2         !
 ! A47   L(1,13,14,8,-2)  176.2408  180.9146  272.8095 estimate D2E/DX2         !
 ! A48   A(14,13,62)      101.4942  135.1856  149.7131 estimate D2E/DX2         !
 ! A49   L(13,14,15,11,-1)  179.7986  178.6485  179.8378 estimate D2E/DX2       !
 ! A50   L(13,14,15,1,-1)  182.1221  179.3423  179.8053 estimate D2E/DX2        !
 ! A51   L(13,14,15,11,-2)  182.1708  177.655  180.1544 estimate D2E/DX2        !
 ! A52   L(13,14,15,1,-2)  186.4282  323.0409  179.8888 estimate D2E/DX2        !
 ! A53   A(14,15,16)      120.525   118.8297  119.745  estimate D2E/DX2         !
 ! A54   A(14,15,18)      119.2319  119.8879  119.8197 estimate D2E/DX2         !
 ! A55   A(16,15,18)      120.2409  121.2822  120.4296 estimate D2E/DX2         !
 ! A56   A(15,16,17)      119.6113  119.0657  119.537  estimate D2E/DX2         !
 ! A57   A(15,16,19)      119.4656  120.1746  119.8713 estimate D2E/DX2         !
 ! A58   A(17,16,19)      120.9207  120.7597  120.591  estimate D2E/DX2         !
 ! A59   A(16,17,29)      120.1057  119.7748  119.7337 estimate D2E/DX2         !
 ! A60   A(16,17,57)      120.2953  119.9927  120.0872 estimate D2E/DX2         !
 ! A61   A(29,17,57)      119.599   120.2326  120.1787 estimate D2E/DX2         !
 ! A62   A(15,18,20)      119.081   119.4873  119.8693 estimate D2E/DX2         !
 ! A63   A(15,18,58)      119.5562  118.7694  119.546  estimate D2E/DX2         !
 ! A64   A(20,18,58)      121.3625  121.7433  120.5838 estimate D2E/DX2         !
 ! A65   A(11,19,16)       79.9301  112.1661  147.3575 estimate D2E/DX2         !
 ! A66   A(18,20,24)       69.0103   62.7598  151.9875 estimate D2E/DX2         !
 ! A67   A(18,20,61)      127.6415  162.5838   63.2149 estimate D2E/DX2         !
 ! A68   A(1,21,27)       118.8864  121.2128  122.409  estimate D2E/DX2         !
 ! A69   A(1,21,54)       123.5776  121.3339  120.1792 estimate D2E/DX2         !
 ! A70   A(27,21,54)      117.3539  117.3326  117.3719 estimate D2E/DX2         !
 ! A71   A(23,22,24)      121.1047  121.2226  120.9754 estimate D2E/DX2         !
 ! A72   A(23,22,27)      119.3492  119.2873  119.5087 estimate D2E/DX2         !
 ! A73   A(24,22,27)      119.5053  119.4755  119.497  estimate D2E/DX2         !
 ! A74   A(22,23,52)      118.9637  119.0084  118.8945 estimate D2E/DX2         !
 ! A75   A(22,23,53)      120.629   120.7383  120.7806 estimate D2E/DX2         !
 ! A76   A(52,23,53)      120.4058  120.2517  120.3201 estimate D2E/DX2         !
 ! A77   A(20,24,22)       89.1165   87.5038  100.821  estimate D2E/DX2         !
 ! A78   A(7,25,8)        122.5809  122.7164  122.4501 estimate D2E/DX2         !
 ! A79   A(7,25,26)       116.739   116.9941  116.2352 estimate D2E/DX2         !
 ! A80   A(8,25,26)       120.662   120.2893  121.3081 estimate D2E/DX2         !
 ! A81   A(21,27,22)      122.5318  122.7187  122.4637 estimate D2E/DX2         !
 ! A82   A(21,27,28)      116.3898  116.996   116.2248 estimate D2E/DX2         !
 ! A83   A(22,27,28)      121.0466  120.2851  121.3045 estimate D2E/DX2         !
 ! A84   A(39,31,43)      122.597   122.5723  122.3093 estimate D2E/DX2         !
 ! A85   A(39,31,62)       61.561    61.4914  118.8492 estimate D2E/DX2         !
 ! A86   A(39,31,63)      118.7335  118.7182   61.3666 estimate D2E/DX2         !
 ! A87   A(43,31,62)       61.4765   61.4953  118.8238 estimate D2E/DX2         !
 ! A88   A(43,31,63)      118.6625  118.7067   61.3697 estimate D2E/DX2         !
 ! A89   A(38,32,44)      121.8516  121.9166  121.8486 estimate D2E/DX2         !
 ! A90   A(38,32,62)      119.1103  119.0443   61.0678 estimate D2E/DX2         !
 ! A91   A(38,32,63)       61.0228   61.0778  119.0633 estimate D2E/DX2         !
 ! A92   A(44,32,62)      119.0301  119.0318   61.0645 estimate D2E/DX2         !
 ! A93   A(44,32,63)       61.0662   61.068   119.0833 estimate D2E/DX2         !
 ! A94   A(9,33,10)       116.8372  117.0675  116.9662 estimate D2E/DX2         !
 ! A95   A(9,33,34)       122.7447  122.5908  122.9607 estimate D2E/DX2         !
 ! A96   A(10,33,34)      120.4039  120.3387  120.073  estimate D2E/DX2         !
 ! A97   A(33,34,35)      120.265   120.9546  120.9417 estimate D2E/DX2         !
 ! A98   A(33,34,39)      120.7704  119.8331  119.8661 estimate D2E/DX2         !
 ! A99   A(35,34,39)      118.896   119.1791  119.1341 estimate D2E/DX2         !
 ! A100  A(34,35,36)      121.6416  121.2786  121.2856 estimate D2E/DX2         !
 ! A101  A(34,35,40)      119.499   119.6689  119.674  estimate D2E/DX2         !
 ! A102  A(36,35,40)      118.8134  119.0134  118.9947 estimate D2E/DX2         !
 ! A103  A(35,36,37)      120.6514  120.7171  120.7422 estimate D2E/DX2         !
 ! A104  A(35,36,41)      119.009   119.0123  119.0173 estimate D2E/DX2         !
 ! A105  A(37,36,41)      120.3062  120.2457  120.2125 estimate D2E/DX2         !
 ! A106  A(36,37,38)      120.3739  120.5328  120.5232 estimate D2E/DX2         !
 ! A107  A(36,37,42)      120.9329  120.6705  120.6689 estimate D2E/DX2         !
 ! A108  A(38,37,42)      118.6906  118.7953  118.8069 estimate D2E/DX2         !
 ! A109  A(32,38,37)      121.7616  122.24    122.2362 estimate D2E/DX2         !
 ! A110  A(32,38,39)      119.1911  118.9991  119.0121 estimate D2E/DX2         !
 ! A111  A(37,38,39)      119.0452  118.758   118.7457 estimate D2E/DX2         !
 ! A112  A(31,39,34)      122.4598  122.1059  121.9443 estimate D2E/DX2         !
 ! A113  A(31,39,38)      118.3127  118.4984  118.6455 estimate D2E/DX2         !
 ! A114  A(34,39,38)      119.2082  119.389   119.4053 estimate D2E/DX2         !
 ! A115  A(31,43,44)      118.4143  118.4837  118.6513 estimate D2E/DX2         !
 ! A116  A(31,43,48)      122.3923  122.1247  121.9344 estimate D2E/DX2         !
 ! A117  A(44,43,48)      119.1828  119.3848  119.4097 estimate D2E/DX2         !
 ! A118  A(32,44,43)      119.0808  119.0099  119.0034 estimate D2E/DX2         !
 ! A119  A(32,44,45)      121.8225  122.2187  122.2494 estimate D2E/DX2         !
 ! A120  A(43,44,45)      119.0939  118.7686  118.7409 estimate D2E/DX2         !
 ! A121  A(44,45,46)      120.3581  120.528   120.5213 estimate D2E/DX2         !
 ! A122  A(44,45,49)      118.7674  118.7904  118.817  estimate D2E/DX2         !
 ! A123  A(46,45,49)      120.8729  120.6802  120.6609 estimate D2E/DX2         !
 ! A124  A(45,46,47)      120.64    120.7068  120.7457 estimate D2E/DX2         !
 ! A125  A(45,46,50)      120.2643  120.2507  120.209  estimate D2E/DX2         !
 ! A126  A(47,46,50)      119.0673  119.0168  119.0169 estimate D2E/DX2         !
 ! A127  A(46,47,48)      121.649   121.3037  121.2822 estimate D2E/DX2         !
 ! A128  A(46,47,51)      118.7066  118.9924  118.9961 estimate D2E/DX2         !
 ! A129  A(48,47,51)      119.5933  119.663   119.6765 estimate D2E/DX2         !
 ! A130  A(43,48,47)      118.8983  119.1567  119.1323 estimate D2E/DX2         !
 ! A131  A(43,48,52)      120.5924  119.9705  119.8668 estimate D2E/DX2         !
 ! A132  A(47,48,52)      120.4551  120.8346  120.9443 estimate D2E/DX2         !
 ! A133  A(23,52,48)      122.7648  122.5636  122.9353 estimate D2E/DX2         !
 ! A134  A(23,52,54)      116.8828  117.0493  116.97   estimate D2E/DX2         !
 ! A135  A(48,52,54)      120.3502  120.3865  120.0947 estimate D2E/DX2         !
 ! A136  A(21,54,52)      124.4882  124.391   124.5567 estimate D2E/DX2         !
 ! A137  A(21,54,55)      116.4897  116.7506  116.7927 estimate D2E/DX2         !
 ! A138  A(52,54,55)      119.0207  118.8579  118.6503 estimate D2E/DX2         !
 ! A139  A(17,57,58)      120.0047  120.597   120.3067 estimate D2E/DX2         !
 ! A140  A(17,57,60)      119.9891  119.6479  119.8457 estimate D2E/DX2         !
 ! A141  A(58,57,60)      120.0063  119.7552  119.8473 estimate D2E/DX2         !
 ! A142  A(18,58,57)      120.2895  120.2931  120.0864 estimate D2E/DX2         !
 ! A143  A(18,58,59)      120.0325  119.4952  119.7296 estimate D2E/DX2         !
 ! A144  A(57,58,59)      119.677   120.2117  120.1834 estimate D2E/DX2         !
 ! A145  A(13,62,31)        0.8308    8.5014  148.3802 estimate D2E/DX2         !
 ! D1    D(4,1,7,10)      127.5535  118.0929  116.3527 estimate D2E/DX2         !
 ! D2    D(4,1,7,25)      -56.2215  -65.7047  -65.8409 estimate D2E/DX2         !
 ! D3    D(6,1,7,10)       39.8483   28.7733   26.0902 estimate D2E/DX2         !
 ! D4    D(6,1,7,25)     -143.9267 -155.0243 -156.1034 estimate D2E/DX2         !
 ! D5    D(13,1,7,10)    -115.7733 -151.027   -86.5137 estimate D2E/DX2         !
 ! D6    D(13,1,7,25)      60.4517   25.1754   91.2927 estimate D2E/DX2         !
 ! D7    D(21,1,7,10)     -53.4004  -64.0218  -66.9962 estimate D2E/DX2         !
 ! D8    D(21,1,7,25)     122.8246  112.1806  110.8102 estimate D2E/DX2         !
 ! D9    D(61,1,7,10)    -166.3666  164.4312 -159.1273 estimate D2E/DX2         !
 ! D10   D(61,1,7,25)       9.8585  -19.3665   18.679  estimate D2E/DX2         !
 ! D11   D(2,1,15,16)    -112.9396 -132.5668  117.3152 estimate D2E/DX2         !
 ! D12   D(2,1,15,18)      66.5897   46.8712   -7.0382 estimate D2E/DX2         !
 ! D13   D(4,1,15,16)     144.1661  134.5698    8.9434 estimate D2E/DX2         !
 ! D14   D(4,1,15,18)     -36.3046  -45.9921 -115.41   estimate D2E/DX2         !
 ! D15   D(7,1,15,16)      70.2846   45.9148  -62.8995 estimate D2E/DX2         !
 ! D16   D(7,1,15,18)    -110.1862 -134.6472  172.7471 estimate D2E/DX2         !
 ! D17   D(21,1,15,16)    -37.9241  -43.5417 -170.8879 estimate D2E/DX2         !
 ! D18   D(21,1,15,18)    141.6052  135.8964   64.7587 estimate D2E/DX2         !
 ! D19   D(2,1,21,27)      59.7226   64.9775   66.0092 estimate D2E/DX2         !
 ! D20   D(2,1,21,54)    -125.3181 -119.1227 -116.3481 estimate D2E/DX2         !
 ! D21   D(6,1,21,27)     147.6161  154.3689  156.2852 estimate D2E/DX2         !
 ! D22   D(6,1,21,54)     -37.4247  -29.7313  -26.0721 estimate D2E/DX2         !
 ! D23   D(7,1,21,27)    -120.1361 -112.6715 -110.6537 estimate D2E/DX2         !
 ! D24   D(7,1,21,54)      54.8232   63.2282   66.989  estimate D2E/DX2         !
 ! D25   D(13,1,21,27)    -57.6595  -25.5371  -91.1356 estimate D2E/DX2         !
 ! D26   D(13,1,21,54)    117.2998  150.3627   86.5071 estimate D2E/DX2         !
 ! D27   D(61,1,21,27)     -6.3442   17.5031  -18.5141 estimate D2E/DX2         !
 ! D28   D(61,1,21,54)    168.6151 -166.5972  159.1286 estimate D2E/DX2         !
 ! D29   D(1,7,10,33)     168.79    170.9989  173.1231 estimate D2E/DX2         !
 ! D30   D(1,7,10,56)     -11.1414   -8.6878   -6.7473 estimate D2E/DX2         !
 ! D31   D(25,7,10,33)     -7.5178   -5.3429   -4.7922 estimate D2E/DX2         !
 ! D32   D(25,7,10,56)    172.5509  174.9705  175.3374 estimate D2E/DX2         !
 ! D33   D(1,7,25,8)     -172.8129 -174.1697 -177.2166 estimate D2E/DX2         !
 ! D34   D(1,7,25,26)       5.6472    5.9781    1.8568 estimate D2E/DX2         !
 ! D35   D(10,7,25,8)       3.6153    2.1817    0.6474 estimate D2E/DX2         !
 ! D36   D(10,7,25,26)   -177.9246 -177.6705  179.7208 estimate D2E/DX2         !
 ! D37   D(11,8,9,12)      -1.6947   -1.589    -1.8553 estimate D2E/DX2         !
 ! D38   D(11,8,9,33)     178.0107  178.9627  178.9172 estimate D2E/DX2         !
 ! D39   D(25,8,9,12)     176.5082  176.9571  176.5923 estimate D2E/DX2         !
 ! D40   D(25,8,9,33)      -3.7865   -2.4911   -2.6352 estimate D2E/DX2         !
 ! D41   D(9,8,11,19)      90.3714  128.0158  111.5414 estimate D2E/DX2         !
 ! D42   D(25,8,11,19)    -87.8261  -50.5278  -66.9071 estimate D2E/DX2         !
 ! D43   D(9,8,25,7)        1.8857    1.6357    2.9883 estimate D2E/DX2         !
 ! D44   D(9,8,25,26)    -176.5155 -178.5168 -176.0389 estimate D2E/DX2         !
 ! D45   D(11,8,25,7)    -179.8826 -179.7923 -178.5399 estimate D2E/DX2         !
 ! D46   D(11,8,25,26)      1.7162    0.0552    2.4328 estimate D2E/DX2         !
 ! D47   D(8,9,33,10)       0.3312   -0.3199   -1.0696 estimate D2E/DX2         !
 ! D48   D(8,9,33,34)    -178.3049  179.0584  179.0325 estimate D2E/DX2         !
 ! D49   D(12,9,33,10)   -179.9631 -179.7707  179.6995 estimate D2E/DX2         !
 ! D50   D(12,9,33,34)      1.4008   -0.3925   -0.1985 estimate D2E/DX2         !
 ! D51   D(7,10,33,9)       5.5737    4.4392    5.015  estimate D2E/DX2         !
 ! D52   D(7,10,33,34)   -175.7564 -174.9538 -175.0839 estimate D2E/DX2         !
 ! D53   D(56,10,33,9)   -174.4965 -175.8802 -175.1168 estimate D2E/DX2         !
 ! D54   D(56,10,33,34)     4.1735    4.7267    4.7842 estimate D2E/DX2         !
 ! D55   D(8,11,19,16)    150.6454  117.7639   53.3578 estimate D2E/DX2         !
 ! D56   D(62,13,15,16)    15.8207    0.4233   89.7844 estimate D2E/DX2         !
 ! D57   D(62,13,15,18)  -164.7284 -179.8178  -89.249  estimate D2E/DX2         !
 ! D58   D(14,13,62,31)   176.8298    1.3918 -178.9573 estimate D2E/DX2         !
 ! D59   D(14,15,16,17)   179.0228  179.857  -178.3155 estimate D2E/DX2         !
 ! D60   D(14,15,16,19)    -0.4229   -0.1263    1.3773 estimate D2E/DX2         !
 ! D61   D(18,15,16,17)    -0.4373    0.0027    0.8132 estimate D2E/DX2         !
 ! D62   D(18,15,16,19)  -179.8829 -179.9806 -179.494  estimate D2E/DX2         !
 ! D63   D(14,15,18,20)     0.5009    0.1848   -1.3207 estimate D2E/DX2         !
 ! D64   D(14,15,18,58)  -179.2992 -179.8524  178.3373 estimate D2E/DX2         !
 ! D65   D(16,15,18,20)   179.9678 -179.9624  179.5513 estimate D2E/DX2         !
 ! D66   D(16,15,18,58)     0.1678    0.0003   -0.7907 estimate D2E/DX2         !
 ! D67   D(15,16,17,29)  -179.7114  179.998   179.6371 estimate D2E/DX2         !
 ! D68   D(15,16,17,57)     0.2715   -0.0077   -0.1502 estimate D2E/DX2         !
 ! D69   D(19,16,17,29)    -0.2741   -0.0189   -0.0534 estimate D2E/DX2         !
 ! D70   D(19,16,17,57)   179.7089  179.9755 -179.8408 estimate D2E/DX2         !
 ! D71   D(15,16,19,11)   -49.6242  -64.5372  -76.5178 estimate D2E/DX2         !
 ! D72   D(17,16,19,11)   130.9376  115.4798  103.1717 estimate D2E/DX2         !
 ! D73   D(16,17,57,58)     0.164     0.0098   -0.5324 estimate D2E/DX2         !
 ! D74   D(16,17,57,60)  -179.8805 -179.988   179.6298 estimate D2E/DX2         !
 ! D75   D(29,17,57,58)  -179.853  -179.9959  179.6812 estimate D2E/DX2         !
 ! D76   D(29,17,57,60)     0.1025    0.0063   -0.1566 estimate D2E/DX2         !
 ! D77   D(15,18,20,24)   -42.7276  -39.6752   72.2844 estimate D2E/DX2         !
 ! D78   D(15,18,20,61)   -13.8082    2.2233   79.8547 estimate D2E/DX2         !
 ! D79   D(58,18,20,24)   137.0687  140.3632 -107.37   estimate D2E/DX2         !
 ! D80   D(58,18,20,61)   165.9881 -177.7383  -99.7997 estimate D2E/DX2         !
 ! D81   D(15,18,58,57)     0.2703    0.0017    0.1052 estimate D2E/DX2         !
 ! D82   D(15,18,58,59)   179.8963  179.9964 -179.6257 estimate D2E/DX2         !
 ! D83   D(20,18,58,57)  -179.525   179.9635  179.7607 estimate D2E/DX2         !
 ! D84   D(20,18,58,59)     0.101    -0.0418    0.0298 estimate D2E/DX2         !
 ! D85   D(18,20,24,22)    92.9055  118.348   -46.9348 estimate D2E/DX2         !
 ! D86   D(1,21,27,22)    171.6079  173.7347  176.964  estimate D2E/DX2         !
 ! D87   D(1,21,27,28)     -6.3577   -6.4186   -2.0847 estimate D2E/DX2         !
 ! D88   D(54,21,27,22)    -3.6645   -2.3232   -0.7414 estimate D2E/DX2         !
 ! D89   D(54,21,27,28)   178.3699  177.5235 -179.79   estimate D2E/DX2         !
 ! D90   D(1,21,54,52)   -167.3295 -170.7064 -172.9049 estimate D2E/DX2         !
 ! D91   D(1,21,54,55)     12.2149    9.0522    6.903  estimate D2E/DX2         !
 ! D92   D(27,21,54,52)     7.7015    5.3464    4.8541 estimate D2E/DX2         !
 ! D93   D(27,21,54,55)  -172.7541 -174.895  -175.338  estimate D2E/DX2         !
 ! D94   D(24,22,23,52)  -178.6871 -178.8661 -178.9497 estimate D2E/DX2         !
 ! D95   D(24,22,23,53)     1.7721    1.5972    1.8437 estimate D2E/DX2         !
 ! D96   D(27,22,23,52)     3.6486    2.5283    2.6426 estimate D2E/DX2         !
 ! D97   D(27,22,23,53)  -175.8922 -177.0084 -176.5639 estimate D2E/DX2         !
 ! D98   D(23,22,24,20)  -127.275  -167.1236 -114.2662 estimate D2E/DX2         !
 ! D99   D(27,22,24,20)    50.3858   11.4793   64.1416 estimate D2E/DX2         !
 ! D100  D(23,22,27,21)    -1.8573   -1.5128   -2.9271 estimate D2E/DX2         !
 ! D101  D(23,22,27,28)   176.0155  178.6454  176.0741 estimate D2E/DX2         !
 ! D102  D(24,22,27,21)  -179.5595  179.8569  178.6415 estimate D2E/DX2         !
 ! D103  D(24,22,27,28)    -1.6867    0.0151   -2.3573 estimate D2E/DX2         !
 ! D104  D(22,23,52,48)   179.391  -179.5503 -179.0167 estimate D2E/DX2         !
 ! D105  D(22,23,52,54)    -0.082     0.1582    1.0323 estimate D2E/DX2         !
 ! D106  D(53,23,52,48)    -1.0672   -0.0113    0.1935 estimate D2E/DX2         !
 ! D107  D(53,23,52,54)   179.4599  179.6972 -179.7574 estimate D2E/DX2         !
 ! D108  D(43,31,39,34)  -170.1932 -171.0588 -171.1073 estimate D2E/DX2         !
 ! D109  D(43,31,39,38)     8.1927    7.9929    8.0804 estimate D2E/DX2         !
 ! D110  D(62,31,39,34)  -177.9294 -178.5638   10.4416 estimate D2E/DX2         !
 ! D111  D(62,31,39,38)     0.4564    0.4878 -170.3707 estimate D2E/DX2         !
 ! D112  D(63,31,39,34)     8.8328    8.319  -178.7139 estimate D2E/DX2         !
 ! D113  D(63,31,39,38)  -172.7814 -172.6293    0.4738 estimate D2E/DX2         !
 ! D114  D(39,31,43,44)    -8.3053   -8.0368   -8.1047 estimate D2E/DX2         !
 ! D115  D(39,31,43,48)   170.4988  171.0122  171.1092 estimate D2E/DX2         !
 ! D116  D(62,31,43,44)    -0.5628   -0.532   170.3468 estimate D2E/DX2         !
 ! D117  D(62,31,43,48)   178.2413  178.517   -10.4393 estimate D2E/DX2         !
 ! D118  D(63,31,43,44)   172.6681  172.5853   -0.4984 estimate D2E/DX2         !
 ! D119  D(63,31,43,48)    -8.5278   -8.3657  178.7155 estimate D2E/DX2         !
 ! D120  D(39,31,62,13)   -97.8257   86.7475   89.3766 estimate D2E/DX2         !
 ! D121  D(43,31,62,13)    89.5905  -86.0571  -89.1292 estimate D2E/DX2         !
 ! D122  D(44,32,38,37)   177.8407  178.0761  178.3863 estimate D2E/DX2         !
 ! D123  D(44,32,38,39)    -2.6893   -2.5547   -2.5202 estimate D2E/DX2         !
 ! D124  D(62,32,38,37)    -1.1211   -0.9271 -175.4289 estimate D2E/DX2         !
 ! D125  D(62,32,38,39)   178.349   178.4421    3.6647 estimate D2E/DX2         !
 ! D126  D(63,32,38,37)  -176.5003 -176.3626   -0.8107 estimate D2E/DX2         !
 ! D127  D(63,32,38,39)     2.9697    3.0066  178.2828 estimate D2E/DX2         !
 ! D128  D(38,32,44,43)     2.5811    2.5098    2.496  estimate D2E/DX2         !
 ! D129  D(38,32,44,45)  -178.0328 -178.1172 -178.4259 estimate D2E/DX2         !
 ! D130  D(62,32,44,43)  -178.4563 -178.4869   -3.689  estimate D2E/DX2         !
 ! D131  D(62,32,44,45)     0.9298    0.8861  175.3891 estimate D2E/DX2         !
 ! D132  D(63,32,44,43)    -3.0755   -3.052  -178.3071 estimate D2E/DX2         !
 ! D133  D(63,32,44,45)   176.3106  176.3211    0.771  estimate D2E/DX2         !
 ! D134  D(9,33,34,35)     45.0003   51.0888   50.1007 estimate D2E/DX2         !
 ! D135  D(9,33,34,39)   -138.0452 -131.0271 -132.6936 estimate D2E/DX2         !
 ! D136  D(10,33,34,35)  -133.5887 -129.5527 -129.7941 estimate D2E/DX2         !
 ! D137  D(10,33,34,39)    43.3658   48.3314   47.4115 estimate D2E/DX2         !
 ! D138  D(33,34,35,36)   176.1938  176.8502  176.1599 estimate D2E/DX2         !
 ! D139  D(33,34,35,40)    -1.3096   -0.8529   -1.356  estimate D2E/DX2         !
 ! D140  D(39,34,35,36)    -0.8174   -1.0475   -1.0659 estimate D2E/DX2         !
 ! D141  D(39,34,35,40)  -178.3207 -178.7507 -178.5818 estimate D2E/DX2         !
 ! D142  D(33,34,39,31)     5.5935    5.0696    6.0886 estimate D2E/DX2         !
 ! D143  D(33,34,39,38)  -172.7784 -173.9738 -173.0931 estimate D2E/DX2         !
 ! D144  D(35,34,39,31)  -177.4109 -177.0086 -176.6552 estimate D2E/DX2         !
 ! D145  D(35,34,39,38)     4.2171    3.9479    4.1631 estimate D2E/DX2         !
 ! D146  D(34,35,36,37)    -2.2476   -1.7539   -1.9335 estimate D2E/DX2         !
 ! D147  D(34,35,36,41)   179.848  -179.946   179.9868 estimate D2E/DX2         !
 ! D148  D(40,35,36,37)   175.2724  175.9639  175.5989 estimate D2E/DX2         !
 ! D149  D(40,35,36,41)    -2.632    -2.2281   -2.4808 estimate D2E/DX2         !
 ! D150  D(35,36,37,38)     1.7844    1.5673    1.7411 estimate D2E/DX2         !
 ! D151  D(35,36,37,42)  -177.6288 -177.994  -177.8964 estimate D2E/DX2         !
 ! D152  D(41,36,37,38)   179.6616  179.737   179.7978 estimate D2E/DX2         !
 ! D153  D(41,36,37,42)     0.2484    0.1757    0.1604 estimate D2E/DX2         !
 ! D154  D(36,37,38,32)  -178.8665 -179.2627 -179.5119 estimate D2E/DX2         !
 ! D155  D(36,37,38,39)     1.6627    1.3667    1.3922 estimate D2E/DX2         !
 ! D156  D(42,37,38,32)     0.5597    0.3067    0.1322 estimate D2E/DX2         !
 ! D157  D(42,37,38,39)  -178.9111 -179.0639 -178.9637 estimate D2E/DX2         !
 ! D158  D(32,38,39,31)    -2.5659   -2.5673   -2.6519 estimate D2E/DX2         !
 ! D159  D(32,38,39,34)   175.8737  176.5107  176.5569 estimate D2E/DX2         !
 ! D160  D(37,38,39,31)   176.9186  176.824   176.4737 estimate D2E/DX2         !
 ! D161  D(37,38,39,34)    -4.6417   -4.0979   -4.3176 estimate D2E/DX2         !
 ! D162  D(31,43,44,32)     2.7757    2.6566    2.6995 estimate D2E/DX2         !
 ! D163  D(31,43,44,45)  -176.6274 -176.7383 -176.4112 estimate D2E/DX2         !
 ! D164  D(48,43,44,32)  -176.0676 -176.4191 -176.5346 estimate D2E/DX2         !
 ! D165  D(48,43,44,45)     4.5292    4.186     4.3546 estimate D2E/DX2         !
 ! D166  D(31,43,48,47)   176.9485  176.9457  176.5563 estimate D2E/DX2         !
 ! D167  D(31,43,48,52)    -5.7164   -5.2827   -6.1537 estimate D2E/DX2         !
 ! D168  D(44,43,48,47)    -4.2563   -4.0136   -4.2356 estimate D2E/DX2         !
 ! D169  D(44,43,48,52)   173.0788  173.758   173.0544 estimate D2E/DX2         !
 ! D170  D(32,44,45,46)   179.0913  179.2214  179.5474 estimate D2E/DX2         !
 ! D171  D(32,44,45,49)    -0.4658   -0.3466   -0.1163 estimate D2E/DX2         !
 ! D172  D(43,44,45,46)    -1.5226   -1.4041   -1.3722 estimate D2E/DX2         !
 ! D173  D(43,44,45,49)   178.9203  179.0279  178.9641 estimate D2E/DX2         !
 ! D174  D(44,45,46,47)    -1.7984   -1.6024   -1.7832 estimate D2E/DX2         !
 ! D175  D(44,45,46,50)  -179.8434 -179.7387 -179.8274 estimate D2E/DX2         !
 ! D176  D(49,45,46,47)   177.7493  177.9574  177.8742 estimate D2E/DX2         !
 ! D177  D(49,45,46,50)    -0.2957   -0.1789   -0.1699 estimate D2E/DX2         !
 ! D178  D(45,46,47,48)     2.1       1.8123    1.9391 estimate D2E/DX2         !
 ! D179  D(45,46,47,51)  -175.2867 -175.853  -175.6076 estimate D2E/DX2         !
 ! D180  D(50,46,47,48)  -179.8319  179.9713 -179.9938 estimate D2E/DX2         !
 ! D181  D(50,46,47,51)     2.7814    2.306     2.4595 estimate D2E/DX2         !
 ! D182  D(46,47,48,43)     0.9893    1.0412    1.1177 estimate D2E/DX2         !
 ! D183  D(46,47,48,52)  -176.3496 -176.7106 -176.1422 estimate D2E/DX2         !
 ! D184  D(51,47,48,43)   178.3533  178.691   178.648  estimate D2E/DX2         !
 ! D185  D(51,47,48,52)     1.0144    0.9392    1.388  estimate D2E/DX2         !
 ! D186  D(43,48,52,23)   135.6893  131.8205  132.61   estimate D2E/DX2         !
 ! D187  D(43,48,52,54)   -44.8555  -47.8786  -47.4405 estimate D2E/DX2         !
 ! D188  D(47,48,52,23)   -47.0172  -50.4459  -50.15   estimate D2E/DX2         !
 ! D189  D(47,48,52,54)   132.438   129.855   129.7995 estimate D2E/DX2         !
 ! D190  D(23,52,54,21)    -5.8621   -4.2914   -5.0121 estimate D2E/DX2         !
 ! D191  D(23,52,54,55)   174.6042  175.9547  175.1833 estimate D2E/DX2         !
 ! D192  D(48,52,54,21)   174.6514  175.4238  175.0354 estimate D2E/DX2         !
 ! D193  D(48,52,54,55)    -4.8822   -4.3301   -4.7691 estimate D2E/DX2         !
 ! D194  D(17,57,58,18)    -0.4368   -0.0068    0.5552 estimate D2E/DX2         !
 ! D195  D(17,57,58,59)   179.9359  179.9986 -179.7151 estimate D2E/DX2         !
 ! D196  D(60,57,58,18)   179.6077  179.991  -179.607  estimate D2E/DX2         !
 ! D197  D(60,57,58,59)    -0.0196   -0.0036    0.1226 estimate D2E/DX2         !
 --------------------------------------------------------------------------------
 Trust Radius=3.00D-01 FncErr=1.00D-07 GrdErr=1.00D-06 EigMax=2.50D+02 EigMin=1.00D-04
 Number of steps in this run=    378 maximum allowed number of steps=    378.
 Search for a saddle point of order  1.
 GradGradGradGradGradGradGradGradGradGradGradGradGradGradGradGradGradGrad

 Stoichiometry    C34H21BrMnN3O3
 Framework group  C1[X(C34H21BrMnN3O3)]
 Deg. of freedom   183
 Full point group                 C1      NOp   1
 Largest Abelian subgroup         C1      NOp   1
 Largest concise Abelian subgroup C1      NOp   1
                         Standard orientation:                         
 ---------------------------------------------------------------------
 Center     Atomic      Atomic             Coordinates (Angstroms)
 Number     Number       Type             X           Y           Z
 ---------------------------------------------------------------------
      1         25           0       -1.501533   -1.866056   -0.092429
      2          6           0       -2.390238   -2.742226   -1.433811
      3          8           0       -2.843668   -3.351706   -2.289917
      4          6           0       -2.395076   -2.832462    1.183389
      5          8           0       -2.841510   -3.497979    2.001028
      6          6           0       -0.293371   -3.158834   -0.130686
      7          7           0       -0.562014   -0.940924    1.498226
      8          6           0       -0.734236    0.426569    3.459363
      9          6           0        0.647035    0.609567    3.483586
     10          6           0        0.766886   -0.848377    1.600179
     11          1           0       -1.379944    0.895865    4.206206
     12          1           0        1.108659    1.251764    4.238264
     13          7           0       -2.043868    0.753346    0.036169
     14          6           0       -2.205494    1.899726    0.074907
     15          6           0       -2.458005    3.319344    0.136471
     16          6           0       -1.441445    4.234507   -0.152116
     17          6           0       -1.712310    5.603837   -0.106630
     18          6           0       -3.736457    3.771338    0.477738
     19          1           0       -0.452450    3.869119   -0.417908
     20          1           0       -4.515410    3.040911    0.698711
     21          7           0       -0.551917   -0.786148   -1.567856
     22          6           0       -0.731394    0.837168   -3.321015
     23          6           0        0.650982    1.005664   -3.343929
     24          1           0       -1.380595    1.416648   -3.978445
     25          6           0       -1.299473   -0.334290    2.447574
     26          1           0       -2.384707   -0.445974    2.373726
     27          6           0       -1.293763   -0.048426   -2.412331
     28          1           0       -2.378498   -0.154614   -2.325903
     29          1           0       -0.926513    6.324778   -0.334888
     30          8           0        0.445817   -4.044539   -0.146639
     31          6           0        2.974057    0.392497    0.029492
     32          6           0        5.754540    0.228857    0.022370
     33          6           0        1.436117   -0.044702    2.532699
     34          6           0        2.923663    0.063589    2.506198
     35          6           0        3.645948   -0.046587    3.667805
     36          6           0        5.074598   -0.027680    3.666750
     37          6           0        5.768674    0.055960    2.494153
     38          6           0        5.071838    0.164744    1.244946
     39          6           0        3.635011    0.220653    1.249620
     40          1           0        3.121335   -0.192926    4.616453
     41          1           0        5.606622   -0.116092    4.617563
     42          1           0        6.863052    0.032036    2.485106
     43          6           0        3.638520    0.344178   -1.201283
     44          6           0        5.075248    0.290355   -1.201453
     45          6           0        5.774567    0.314164   -2.455070
     46          6           0        5.082397    0.355643   -3.630112
     47          6           0        3.653550    0.337482   -3.634689
     48          6           0        2.929171    0.321039   -2.467643
     49          1           0        6.869363    0.290991   -2.448328
     50          1           0        5.616886    0.371160   -4.584713
     51          1           0        3.132037    0.293058   -4.594486
     52          6           0        1.441947    0.220481   -2.502614
     53          1           0        1.111430    1.746504   -4.004641
     54          6           0        0.774457   -0.696704   -1.678984
     55          1           0        1.360093   -1.387625   -1.074800
     56          1           0        1.352675   -1.445732    0.900567
     57          6           0       -2.983238    6.056591    0.228963
     58          6           0       -3.992186    5.143443    0.524989
     59          1           0       -4.984826    5.503750    0.788041
     60          1           0       -3.191038    7.133607    0.261261
     61         35           0       -4.458668   -1.177061   -0.102957
     62          1           0        6.849858    0.213656    0.022199
     63          1           0        1.898048    0.554887    0.035732
 ---------------------------------------------------------------------
 Rotational constants (GHZ):           0.0912147           0.0561758           0.0515409
 General basis read from cards:  (5D, 7F)
 There are   802 symmetry adapted cartesian basis functions of A   symmetry.
 There are   751 symmetry adapted basis functions of A   symmetry.
   751 basis functions,  1339 primitive gaussians,   802 cartesian basis functions
   165 alpha electrons      165 beta electrons
       nuclear repulsion energy      6079.3503335054 Hartrees.
 NAtoms=   63 NActive=   63 NUniq=   63 SFac= 1.00D+00 NAtFMM=   60 NAOKFM=T Big=T
 Integral buffers will be    131072 words long.
 Raffenetti 2 integral format.
 Two-electron integral symmetry is turned on.
 Nuclear repulsion after empirical dispersion term =     6079.2848717296 Hartrees.
 ------------------------------------------------------------------------------
 Polarizable Continuum Model (PCM)
 =================================
 Model                : PCM.
 Atomic radii         : UFF (Universal Force Field).
 Polarization charges : Total charges.
 Charge compensation  : None.
 Solution method      : On-the-fly selection.
 Cavity type          : Scaled VdW (van der Waals Surface) (Alpha=1.100).
 Cavity algorithm     : GePol (No added spheres)
                        Default sphere list used, NSphG=   63.
                        Lebedev-Laikov grids with approx.  5.0 points / Ang**2.
                        Smoothing algorithm: York/Karplus (Gamma=1.0000).
                        Polarization charges: spherical gaussians, with
                                              point-specific exponents (IZeta= 3).
                        Self-potential: point-specific (ISelfS= 7).
                        Self-field    : sphere-specific E.n sum rule (ISelfD= 2).
 1st derivatives      : Analytical E(r).r(x)/FMM algorithm (CHGder, D1EAlg=3).
                        Cavity 1st derivative terms included.
 Solvent              : TetraHydroFuran, Eps=   7.425700 Eps(inf)=   1.974025
 ------------------------------------------------------------------------------
 One-electron integrals computed using PRISM.
 PrsmSu:  requested number of processors reduced to:  11 ShMem   1 Linda.
 NBasis=   751 RedAO= T EigKep=  2.29D-04  NBF=   751
 NBsUse=   751 1.00D-06 EigRej= -1.00D+00 NBFU=   751
 ExpMin= 3.93D-02 ExpMax= 2.77D+05 ExpMxC= 1.70D+04 IAcc=3 IRadAn=         5 AccDes= 0.00D+00
 Harris functional with IExCor= 4639 and IRadAn=       5 diagonalized for initial guess.
 HarFok:  IExCor= 4639 AccDes= 0.00D+00 IRadAn=         5 IDoV= 1 UseB2=F ITyADJ=14
 ICtDFT=  3500011 ScaDFX=  1.000000  1.000000  1.000000  1.000000
 FoFCou: FMM=F IPFlag=           0 FMFlag=      100000 FMFlg1=        2001
         NFxFlg=           0 DoJE=T BraDBF=F KetDBF=T FulRan=T
         wScrn=  0.000000 ICntrl=       500 IOpCl=  0 I1Cent=   200000004 NGrid=           0
         NMat0=    1 NMatS0=      1 NMatT0=    0 NMatD0=    1 NMtDS0=    0 NMtDT0=    0
 Petite list used in FoFCou.
 Requested convergence on RMS density matrix=1.00D-08 within 128 cycles.
 Requested convergence on MAX density matrix=1.00D-06.
 Requested convergence on             energy=1.00D-06.
 No special actions if energy rises.
 CoulSu:  requested number of processors reduced to:  10 ShMem   1 Linda.
 Inv3:  Mode=1 IEnd=    67545075.
 Iteration    1 A*A^-1 deviation from unit magnitude is 3.33D-15 for   1109.
 Iteration    1 A*A^-1 deviation from orthogonality  is 2.80D-15 for   3904   3311.
 Iteration    1 A^-1*A deviation from unit magnitude is 3.55D-15 for   1109.
 Iteration    1 A^-1*A deviation from orthogonality  is 3.33D-15 for   3391    657.
 CoulSu:  requested number of processors reduced to:  10 ShMem   1 Linda.
 CoulSu:  requested number of processors reduced to:  10 ShMem   1 Linda.
 Error on total polarization charges =  0.01968
 SCF Done:  E(RwB97XD) =  -5421.43147013     A.U. after   20 cycles
            NFock= 20  Conv=0.53D-08     -V/T= 2.0041

 **********************************************************************

            Population analysis using the SCF density.

 **********************************************************************

 Orbital symmetries:
       Occupied  (A) (A) (A) (A) (A) (A) (A) (A) (A) (A) (A) (A)
                 (A) (A) (A) (A) (A) (A) (A) (A) (A) (A) (A) (A)
                 (A) (A) (A) (A) (A) (A) (A) (A) (A) (A) (A) (A)
                 (A) (A) (A) (A) (A) (A) (A) (A) (A) (A) (A) (A)
                 (A) (A) (A) (A) (A) (A) (A) (A) (A) (A) (A) (A)
                 (A) (A) (A) (A) (A) (A) (A) (A) (A) (A) (A) (A)
                 (A) (A) (A) (A) (A) (A) (A) (A) (A) (A) (A) (A)
                 (A) (A) (A) (A) (A) (A) (A) (A) (A) (A) (A) (A)
                 (A) (A) (A) (A) (A) (A) (A) (A) (A) (A) (A) (A)
                 (A) (A) (A) (A) (A) (A) (A) (A) (A) (A) (A) (A)
                 (A) (A) (A) (A) (A) (A) (A) (A) (A) (A) (A) (A)
                 (A) (A) (A) (A) (A) (A) (A) (A) (A) (A) (A) (A)
                 (A) (A) (A) (A) (A) (A) (A) (A) (A) (A) (A) (A)
                 (A) (A) (A) (A) (A) (A) (A) (A) (A)
       Virtual   (A) (A) (A) (A) (A) (A) (A) (A) (A) (A) (A) (A)
                 (A) (A) (A) (A) (A) (A) (A) (A) (A) (A) (A) (A)
                 (A) (A) (A) (A) (A) (A) (A) (A) (A) (A) (A) (A)
                 (A) (A) (A) (A) (A) (A) (A) (A) (A) (A) (A) (A)
                 (A) (A) (A) (A) (A) (A) (A) (A) (A) (A) (A) (A)
                 (A) (A) (A) (A) (A) (A) (A) (A) (A) (A) (A) (A)
                 (A) (A) (A) (A) (A) (A) (A) (A) (A) (A) (A) (A)
                 (A) (A) (A) (A) (A) (A) (A) (A) (A) (A) (A) (A)
                 (A) (A) (A) (A) (A) (A) (A) (A) (A) (A) (A) (A)
                 (A) (A) (A) (A) (A) (A) (A) (A) (A) (A) (A) (A)
                 (A) (A) (A) (A) (A) (A) (A) (A) (A) (A) (A) (A)
                 (A) (A) (A) (A) (A) (A) (A) (A) (A) (A) (A) (A)
                 (A) (A) (A) (A) (A) (A) (A) (A) (A) (A) (A) (A)
                 (A) (A) (A) (A) (A) (A) (A) (A) (A) (A) (A) (A)
                 (A) (A) (A) (A) (A) (A) (A) (A) (A) (A) (A) (A)
                 (A) (A) (A) (A) (A) (A) (A) (A) (A) (A) (A) (A)
                 (A) (A) (A) (A) (A) (A) (A) (A) (A) (A) (A) (A)
                 (A) (A) (A) (A) (A) (A) (A) (A) (A) (A) (A) (A)
                 (A) (A) (A) (A) (A) (A) (A) (A) (A) (A) (A) (A)
                 (A) (A) (A) (A) (A) (A) (A) (A) (A) (A) (A) (A)
                 (A) (A) (A) (A) (A) (A) (A) (A) (A) (A) (A) (A)
                 (A) (A) (A) (A) (A) (A) (A) (A) (A) (A) (A) (A)
                 (A) (A) (A) (A) (A) (A) (A) (A) (A) (A) (A) (A)
                 (A) (A) (A) (A) (A) (A) (A) (A) (A) (A) (A) (A)
                 (A) (A) (A) (A) (A) (A) (A) (A) (A) (A) (A) (A)
                 (A) (A) (A) (A) (A) (A) (A) (A) (A) (A) (A) (A)
                 (A) (A) (A) (A) (A) (A) (A) (A) (A) (A) (A) (A)
                 (A) (A) (A) (A) (A) (A) (A) (A) (A) (A) (A) (A)
                 (A) (A) (A) (A) (A) (A) (A) (A) (A) (A) (A) (A)
                 (A) (A) (A) (A) (A) (A) (A) (A) (A) (A) (A) (A)
                 (A) (A) (A) (A) (A) (A) (A) (A) (A) (A) (A) (A)
                 (A) (A) (A) (A) (A) (A) (A) (A) (A) (A) (A) (A)
                 (A) (A) (A) (A) (A) (A) (A) (A) (A) (A) (A) (A)
                 (A) (A) (A) (A) (A) (A) (A) (A) (A) (A) (A) (A)
                 (A) (A) (A) (A) (A) (A) (A) (A) (A) (A) (A) (A)
                 (A) (A) (A) (A) (A) (A) (A) (A) (A) (A) (A) (A)
                 (A) (A) (A) (A) (A) (A) (A) (A) (A) (A) (A) (A)
                 (A) (A) (A) (A) (A) (A) (A) (A) (A) (A) (A) (A)
                 (A) (A) (A) (A) (A) (A) (A) (A) (A) (A) (A) (A)
                 (A) (A) (A) (A) (A) (A) (A) (A) (A) (A) (A) (A)
                 (A) (A) (A) (A) (A) (A) (A) (A) (A) (A) (A) (A)
                 (A) (A) (A) (A) (A) (A) (A) (A) (A) (A) (A) (A)
                 (A) (A) (A) (A) (A) (A) (A) (A) (A) (A) (A) (A)
                 (A) (A) (A) (A) (A) (A) (A) (A) (A) (A) (A) (A)
                 (A) (A) (A) (A) (A) (A) (A) (A) (A) (A) (A) (A)
                 (A) (A) (A) (A) (A) (A) (A) (A) (A) (A) (A) (A)
                 (A) (A) (A) (A) (A) (A) (A) (A) (A) (A) (A) (A)
                 (A) (A) (A) (A) (A) (A) (A) (A) (A) (A) (A) (A)
                 (A) (A) (A) (A) (A) (A) (A) (A) (A) (A)
 The electronic state is 1-A.
 Alpha  occ. eigenvalues -- -482.96831-235.68945 -62.54855 -56.35446 -56.35400
 Alpha  occ. eigenvalues --  -56.35385 -27.45780 -23.51577 -23.51502 -23.51222
 Alpha  occ. eigenvalues --  -19.33175 -19.33023 -19.32787 -14.50060 -14.50004
 Alpha  occ. eigenvalues --  -14.46293 -10.40941 -10.40831 -10.40564 -10.36553
 Alpha  occ. eigenvalues --  -10.36549 -10.36012 -10.35944 -10.35932 -10.35526
 Alpha  occ. eigenvalues --  -10.34313 -10.34272 -10.34174 -10.34166 -10.33492
 Alpha  occ. eigenvalues --  -10.33487 -10.33330 -10.33217 -10.33215 -10.33199
 Alpha  occ. eigenvalues --  -10.32956 -10.32902 -10.32796 -10.32793 -10.32550
 Alpha  occ. eigenvalues --  -10.32341 -10.32270 -10.32204 -10.32195 -10.32021
 Alpha  occ. eigenvalues --  -10.31950 -10.31920 -10.31914 -10.31775 -10.31770
 Alpha  occ. eigenvalues --   -8.71612  -6.53408  -6.53248  -6.53195  -3.25223
 Alpha  occ. eigenvalues --   -2.63899  -2.63868  -2.63825  -2.63697  -2.63694
 Alpha  occ. eigenvalues --   -2.10906  -2.10509  -2.10029  -1.22140  -1.22003
 Alpha  occ. eigenvalues --   -1.21460  -1.08106  -1.07749  -1.01937  -1.00024
 Alpha  occ. eigenvalues --   -0.97878  -0.97321  -0.94120  -0.92916  -0.91150
 Alpha  occ. eigenvalues --   -0.90495  -0.89397  -0.88210  -0.87111  -0.86241
 Alpha  occ. eigenvalues --   -0.84992  -0.84732  -0.81744  -0.76659  -0.76378
 Alpha  occ. eigenvalues --   -0.75454  -0.75057  -0.75011  -0.74529  -0.74096
 Alpha  occ. eigenvalues --   -0.72137  -0.72020  -0.70071  -0.68731  -0.67509
 Alpha  occ. eigenvalues --   -0.65680  -0.64553  -0.64443  -0.64303  -0.63876
 Alpha  occ. eigenvalues --   -0.63804  -0.62401  -0.61745  -0.60572  -0.59687
 Alpha  occ. eigenvalues --   -0.59158  -0.57623  -0.57395  -0.57241  -0.57091
 Alpha  occ. eigenvalues --   -0.56235  -0.56084  -0.55878  -0.55626  -0.55214
 Alpha  occ. eigenvalues --   -0.55052  -0.54693  -0.54489  -0.54241  -0.54135
 Alpha  occ. eigenvalues --   -0.53383  -0.53113  -0.52975  -0.52819  -0.52263
 Alpha  occ. eigenvalues --   -0.52139  -0.51926  -0.51008  -0.51002  -0.50815
 Alpha  occ. eigenvalues --   -0.50400  -0.50081  -0.49883  -0.49215  -0.48583
 Alpha  occ. eigenvalues --   -0.48049  -0.47861  -0.47284  -0.47061  -0.45927
 Alpha  occ. eigenvalues --   -0.45826  -0.44998  -0.44670  -0.43768  -0.43472
 Alpha  occ. eigenvalues --   -0.42927  -0.41779  -0.41624  -0.41038  -0.40459
 Alpha  occ. eigenvalues --   -0.40015  -0.39242  -0.37504  -0.36142  -0.35500
 Alpha  occ. eigenvalues --   -0.35260  -0.33896  -0.33198  -0.33092  -0.32222
 Alpha  occ. eigenvalues --   -0.30843  -0.30203  -0.29895  -0.28274  -0.27844
 Alpha virt. eigenvalues --   -0.02917   0.00112   0.00524   0.00679   0.02075
 Alpha virt. eigenvalues --    0.02416   0.02499   0.03523   0.03873   0.05790
 Alpha virt. eigenvalues --    0.06218   0.06931   0.07889   0.07930   0.09280
 Alpha virt. eigenvalues --    0.09401   0.09620   0.10038   0.11616   0.11949
 Alpha virt. eigenvalues --    0.12236   0.12566   0.13454   0.13933   0.14364
 Alpha virt. eigenvalues --    0.14434   0.14801   0.15278   0.15422   0.16048
 Alpha virt. eigenvalues --    0.16274   0.16627   0.17308   0.18031   0.18827
 Alpha virt. eigenvalues --    0.19178   0.19696   0.19783   0.20575   0.20878
 Alpha virt. eigenvalues --    0.20958   0.21836   0.22197   0.22442   0.22897
 Alpha virt. eigenvalues --    0.23319   0.23575   0.23607   0.24753   0.25427
 Alpha virt. eigenvalues --    0.26647   0.26845   0.27648   0.27993   0.28912
 Alpha virt. eigenvalues --    0.29003   0.29956   0.30110   0.30723   0.30938
 Alpha virt. eigenvalues --    0.31028   0.31715   0.32508   0.32566   0.32857
 Alpha virt. eigenvalues --    0.33372   0.33784   0.33812   0.34036   0.34161
 Alpha virt. eigenvalues --    0.34301   0.34999   0.35374   0.35942   0.36098
 Alpha virt. eigenvalues --    0.36356   0.36739   0.36818   0.37691   0.37750
 Alpha virt. eigenvalues --    0.38353   0.38501   0.38944   0.39468   0.40012
 Alpha virt. eigenvalues --    0.40514   0.40794   0.41930   0.41987   0.42210
 Alpha virt. eigenvalues --    0.42282   0.43028   0.43276   0.43955   0.44533
 Alpha virt. eigenvalues --    0.44818   0.46059   0.46196   0.47125   0.47510
 Alpha virt. eigenvalues --    0.47792   0.48195   0.48586   0.48806   0.49434
 Alpha virt. eigenvalues --    0.50515   0.50789   0.50852   0.51246   0.51766
 Alpha virt. eigenvalues --    0.52382   0.52572   0.52863   0.53115   0.53499
 Alpha virt. eigenvalues --    0.53597   0.53654   0.54474   0.54558   0.55113
 Alpha virt. eigenvalues --    0.55281   0.55749   0.56142   0.56255   0.56461
 Alpha virt. eigenvalues --    0.56918   0.57468   0.58050   0.58504   0.58769
 Alpha virt. eigenvalues --    0.59606   0.59611   0.60531   0.60946   0.61052
 Alpha virt. eigenvalues --    0.61186   0.61396   0.61595   0.62174   0.62492
 Alpha virt. eigenvalues --    0.63777   0.64216   0.64307   0.64723   0.65382
 Alpha virt. eigenvalues --    0.65660   0.66394   0.66594   0.67016   0.67150
 Alpha virt. eigenvalues --    0.67406   0.68207   0.68269   0.68618   0.69233
 Alpha virt. eigenvalues --    0.69365   0.70439   0.70552   0.71065   0.71390
 Alpha virt. eigenvalues --    0.71957   0.72022   0.72221   0.72478   0.72721
 Alpha virt. eigenvalues --    0.73182   0.73386   0.73645   0.73738   0.74039
 Alpha virt. eigenvalues --    0.74345   0.74607   0.74948   0.75227   0.75490
 Alpha virt. eigenvalues --    0.75935   0.76089   0.76233   0.76474   0.77116
 Alpha virt. eigenvalues --    0.77297   0.77438   0.77679   0.78293   0.78687
 Alpha virt. eigenvalues --    0.79093   0.79526   0.79684   0.80290   0.80358
 Alpha virt. eigenvalues --    0.80653   0.80871   0.81640   0.81935   0.82035
 Alpha virt. eigenvalues --    0.82687   0.83148   0.83513   0.83606   0.84243
 Alpha virt. eigenvalues --    0.84427   0.84912   0.85504   0.85833   0.85919
 Alpha virt. eigenvalues --    0.86188   0.86615   0.87093   0.87240   0.87759
 Alpha virt. eigenvalues --    0.87900   0.88164   0.88369   0.88554   0.89241
 Alpha virt. eigenvalues --    0.89984   0.90179   0.90777   0.91315   0.91650
 Alpha virt. eigenvalues --    0.91745   0.91948   0.92510   0.92987   0.93749
 Alpha virt. eigenvalues --    0.94177   0.95052   0.95531   0.95995   0.96614
 Alpha virt. eigenvalues --    0.96844   0.97443   0.98188   0.98372   0.98793
 Alpha virt. eigenvalues --    1.00634   1.01615   1.01893   1.02285   1.02836
 Alpha virt. eigenvalues --    1.03196   1.03582   1.05181   1.06189   1.06856
 Alpha virt. eigenvalues --    1.07890   1.08323   1.09606   1.10348   1.11511
 Alpha virt. eigenvalues --    1.12101   1.12811   1.13226   1.14714   1.15419
 Alpha virt. eigenvalues --    1.15887   1.16337   1.16700   1.17247   1.17576
 Alpha virt. eigenvalues --    1.18569   1.19426   1.19962   1.21578   1.21938
 Alpha virt. eigenvalues --    1.22295   1.23450   1.24030   1.25111   1.25397
 Alpha virt. eigenvalues --    1.26027   1.26109   1.27034   1.28293   1.28811
 Alpha virt. eigenvalues --    1.29745   1.29783   1.30007   1.30289   1.30633
 Alpha virt. eigenvalues --    1.30863   1.31177   1.31503   1.32150   1.32281
 Alpha virt. eigenvalues --    1.32842   1.34013   1.34252   1.34601   1.35075
 Alpha virt. eigenvalues --    1.35437   1.35538   1.36217   1.36385   1.36556
 Alpha virt. eigenvalues --    1.36788   1.37769   1.39303   1.39481   1.39652
 Alpha virt. eigenvalues --    1.40206   1.41081   1.41445   1.41787   1.42692
 Alpha virt. eigenvalues --    1.43146   1.44747   1.44949   1.45766   1.46214
 Alpha virt. eigenvalues --    1.48617   1.49116   1.50906   1.51535   1.52896
 Alpha virt. eigenvalues --    1.55489   1.55764   1.56447   1.57604   1.59470
 Alpha virt. eigenvalues --    1.60247   1.60584   1.62977   1.64438   1.64617
 Alpha virt. eigenvalues --    1.66822   1.66993   1.67665   1.67984   1.69987
 Alpha virt. eigenvalues --    1.71169   1.71943   1.72360   1.72766   1.73015
 Alpha virt. eigenvalues --    1.73200   1.73623   1.73979   1.74127   1.74946
 Alpha virt. eigenvalues --    1.75369   1.75999   1.76477   1.77352   1.77638
 Alpha virt. eigenvalues --    1.78295   1.78455   1.78776   1.79078   1.79398
 Alpha virt. eigenvalues --    1.79488   1.79818   1.79991   1.80292   1.80756
 Alpha virt. eigenvalues --    1.81109   1.81294   1.81610   1.81864   1.82050
 Alpha virt. eigenvalues --    1.82365   1.82504   1.82642   1.82828   1.83304
 Alpha virt. eigenvalues --    1.83656   1.84384   1.84636   1.85222   1.85417
 Alpha virt. eigenvalues --    1.86046   1.86279   1.86796   1.87596   1.88270
 Alpha virt. eigenvalues --    1.88927   1.89679   1.89750   1.90426   1.90724
 Alpha virt. eigenvalues --    1.90950   1.91533   1.91668   1.92649   1.93838
 Alpha virt. eigenvalues --    1.94327   1.95491   1.96027   1.96439   1.97421
 Alpha virt. eigenvalues --    1.97847   1.98228   1.98680   1.99682   2.00259
 Alpha virt. eigenvalues --    2.00577   2.01007   2.01821   2.02228   2.02688
 Alpha virt. eigenvalues --    2.03096   2.03613   2.03919   2.04549   2.04905
 Alpha virt. eigenvalues --    2.05626   2.05821   2.06436   2.07003   2.07498
 Alpha virt. eigenvalues --    2.08983   2.09557   2.09841   2.10578   2.10905
 Alpha virt. eigenvalues --    2.10947   2.12031   2.12857   2.13985   2.15540
 Alpha virt. eigenvalues --    2.15621   2.16358   2.16986   2.17194   2.17562
 Alpha virt. eigenvalues --    2.18088   2.18895   2.20190   2.20460   2.20816
 Alpha virt. eigenvalues --    2.20899   2.21579   2.21915   2.22289   2.22957
 Alpha virt. eigenvalues --    2.24096   2.24384   2.24754   2.26069   2.26458
 Alpha virt. eigenvalues --    2.26979   2.29582   2.30913   2.31360   2.31973
 Alpha virt. eigenvalues --    2.32234   2.32543   2.33372   2.34309   2.34926
 Alpha virt. eigenvalues --    2.35219   2.36956   2.37293   2.37517   2.37642
 Alpha virt. eigenvalues --    2.38033   2.38432   2.38911   2.39441   2.39652
 Alpha virt. eigenvalues --    2.41256   2.41697   2.42470   2.42649   2.43332
 Alpha virt. eigenvalues --    2.44079   2.45267   2.45710   2.46511   2.46973
 Alpha virt. eigenvalues --    2.48040   2.48657   2.50228   2.50681   2.50872
 Alpha virt. eigenvalues --    2.54152   2.55911   2.57029   2.59267   2.59800
 Alpha virt. eigenvalues --    2.60790   2.61835   2.61989   2.64072   2.64776
 Alpha virt. eigenvalues --    2.66076   2.66969   2.67104   2.67517   2.67688
 Alpha virt. eigenvalues --    2.68279   2.68704   2.70902   2.71009   2.71141
 Alpha virt. eigenvalues --    2.71195   2.71258   2.71744   2.71916   2.72165
 Alpha virt. eigenvalues --    2.72206   2.72895   2.73271   2.74373   2.74825
 Alpha virt. eigenvalues --    2.75712   2.76931   2.79292   2.79623   2.79924
 Alpha virt. eigenvalues --    2.80730   2.80836   2.81248   2.81748   2.82122
 Alpha virt. eigenvalues --    2.84489   2.85612   2.86123   2.86909   2.87192
 Alpha virt. eigenvalues --    2.89832   2.90818   2.91766   2.95509   2.95734
 Alpha virt. eigenvalues --    2.96079   2.97968   2.98069   2.99408   3.01050
 Alpha virt. eigenvalues --    3.03286   3.05151   3.05996   3.06482   3.07591
 Alpha virt. eigenvalues --    3.09099   3.10181   3.10290   3.12027   3.12773
 Alpha virt. eigenvalues --    3.15867   3.16599   3.19375   3.20008   3.20603
 Alpha virt. eigenvalues --    3.21031   3.21164   3.22758   3.23401   3.25138
 Alpha virt. eigenvalues --    3.25334   3.30077   3.31283   3.32886   3.35139
 Alpha virt. eigenvalues --    3.38503   3.39163   3.42440   3.49364   3.50427
 Alpha virt. eigenvalues --    3.51691   3.53576   3.55275   3.57416   3.59727
 Alpha virt. eigenvalues --    3.62667   3.63660   3.64518   3.65374   3.66260
 Alpha virt. eigenvalues --    3.66298   3.66773   3.71751   3.71932   3.72979
 Alpha virt. eigenvalues --    3.76108   3.76819   3.77199   3.81464   3.82045
 Alpha virt. eigenvalues --    3.82738   3.91250   3.94484   3.99834   4.07105
 Alpha virt. eigenvalues --    4.13814
          Condensed to atoms (all electrons):
 Mulliken charges:
               1
     1  Mn  -0.723049
     2  C    0.368977
     3  O   -0.068157
     4  C    0.367397
     5  O   -0.067618
     6  C    0.307890
     7  N   -0.222429
     8  C   -0.035877
     9  C    0.034137
    10  C    0.095378
    11  H    0.060551
    12  H    0.052968
    13  N    0.019530
    14  C    0.000790
    15  C   -0.148461
    16  C    0.023854
    17  C   -0.025452
    18  C    0.022859
    19  H    0.041200
    20  H    0.060088
    21  N   -0.222372
    22  C   -0.036126
    23  C    0.035571
    24  H    0.058822
    25  C    0.112481
    26  H    0.093803
    27  C    0.115579
    28  H    0.096034
    29  H    0.050212
    30  O   -0.089166
    31  C   -0.186210
    32  C   -0.083945
    33  C   -0.035522
    34  C    0.066275
    35  C   -0.067330
    36  C   -0.018862
    37  C   -0.019347
    38  C    0.016406
    39  C    0.078758
    40  H    0.035415
    41  H    0.043564
    42  H    0.032446
    43  C    0.077426
    44  C    0.016490
    45  C   -0.019245
    46  C   -0.019942
    47  C   -0.064818
    48  C    0.062433
    49  H    0.032651
    50  H    0.044092
    51  H    0.034850
    52  C   -0.040055
    53  H    0.052958
    54  C    0.093930
    55  H    0.065704
    56  H    0.063294
    57  C   -0.009275
    58  C   -0.023923
    59  H    0.051037
    60  H    0.055646
    61  Br  -0.784464
    62  H    0.021478
    63  H    0.048671
 Sum of Mulliken charges =  -0.00000
 Mulliken charges with hydrogens summed into heavy atoms:
               1
     1  Mn  -0.723049
     2  C    0.368977
     3  O   -0.068157
     4  C    0.367397
     5  O   -0.067618
     6  C    0.307890
     7  N   -0.222429
     8  C    0.024674
     9  C    0.087105
    10  C    0.158672
    13  N    0.019530
    14  C    0.000790
    15  C   -0.148461
    16  C    0.065054
    17  C    0.024760
    18  C    0.082946
    21  N   -0.222372
    22  C    0.022696
    23  C    0.088529
    25  C    0.206284
    27  C    0.211613
    30  O   -0.089166
    31  C   -0.137539
    32  C   -0.062467
    33  C   -0.035522
    34  C    0.066275
    35  C   -0.031915
    36  C    0.024701
    37  C    0.013099
    38  C    0.016406
    39  C    0.078758
    43  C    0.077426
    44  C    0.016490
    45  C    0.013407
    46  C    0.024150
    47  C   -0.029969
    48  C    0.062433
    52  C   -0.040055
    54  C    0.159634
    57  C    0.046371
    58  C    0.027114
    61  Br  -0.784464
 Electronic spatial extent (au):  <R**2>=          23063.8620
 Charge=             -0.0000 electrons
 Dipole moment (field-independent basis, Debye):
    X=             15.4152    Y=             12.7765    Z=              0.8347  Tot=             20.0391
 Quadrupole moment (field-independent basis, Debye-Ang):
   XX=           -287.6305   YY=           -249.6907   ZZ=           -220.9132
   XY=            -37.9245   XZ=             -5.1863   YZ=             -2.7043
 Traceless Quadrupole moment (field-independent basis, Debye-Ang):
   XX=            -34.8857   YY=              3.0541   ZZ=             31.8316
   XY=            -37.9245   XZ=             -5.1863   YZ=             -2.7043
 Octapole moment (field-independent basis, Debye-Ang**2):
  XXX=            339.0241  YYY=            160.3402  ZZZ=              7.5577  XYY=           -138.0579
  XXY=            140.4219  XXZ=             23.9849  XZZ=             30.1015  YZZ=             12.3723
  YYZ=             -1.9841  XYZ=            -16.4862
 Hexadecapole moment (field-independent basis, Debye-Ang**3):
 XXXX=         -15619.6923 YYYY=          -6936.9757 ZZZZ=          -5662.2151 XXXY=           -573.7314
 XXXZ=           -109.9738 YYYX=           -415.0099 YYYZ=             28.5861 ZZZX=              7.7151
 ZZZY=            -51.8200 XXYY=          -3992.7467 XXZZ=          -3338.9284 YYZZ=          -2567.2777
 XXYZ=             31.0773 YYXZ=            -67.5975 ZZXY=             41.3022
 N-N= 6.079284871730D+03 E-N=-2.498755403704D+04  KE= 5.399412505035D+03
 PrsmSu:  requested number of processors reduced to:  11 ShMem   1 Linda.
 D1PCM: PCM CHGder 1st derivatives, ID1Alg=3 FixD1E=F DoIter=F DoCFld=F I1PDM=0.
 CoulSu:  requested number of processors reduced to:  10 ShMem   1 Linda.
 CoulSu:  requested number of processors reduced to:  10 ShMem   1 Linda.
[...]
   D60       -0.00265   0.00017   0.00000  -0.00025   0.00013  -0.00252
   D61       -0.01054   0.00022   0.00000   0.00362   0.00352  -0.00701
   D62        3.13851  -0.00021   0.00000   0.00279   0.00265   3.14116
   D63        0.00804  -0.00094   0.00000  -0.00194  -0.00235   0.00568
   D64       -3.13635  -0.00053   0.00000   0.00045   0.00004  -3.13631
   D65       -3.13312  -0.00057   0.00000  -0.00496  -0.00486  -3.13799
   D66        0.00567  -0.00016   0.00000  -0.00257  -0.00247   0.00320
   D67       -3.13662  -0.00019   0.00000  -0.00131  -0.00129  -3.13791
   D68        0.00568  -0.00009   0.00000  -0.00151  -0.00146   0.00422
   D69       -0.00260   0.00026   0.00000  -0.00044  -0.00039  -0.00299
   D70        3.13970   0.00035   0.00000  -0.00063  -0.00056   3.13914
   D71       -0.83319   0.00014   0.00000  -0.01346  -0.01315  -0.84634
   D72        2.31596  -0.00029   0.00000  -0.01431  -0.01403   2.30193
   D73        0.00400  -0.00014   0.00000  -0.00168  -0.00166   0.00235
   D74       -3.14029  -0.00002   0.00000  -0.00012  -0.00013  -3.14043
   D75       -3.13689  -0.00004   0.00000  -0.00187  -0.00182  -3.13871
   D76        0.00200   0.00008   0.00000  -0.00031  -0.00030   0.00170
   D77       -0.75699  -0.00095   0.00000   0.00406   0.00381  -0.75319
   D78       -0.22570   0.00091   0.00000  -0.00335  -0.00346  -0.22916
   D79        2.38745  -0.00136   0.00000   0.00163   0.00138   2.38882
   D80        2.91873   0.00050   0.00000  -0.00578  -0.00589   2.91284
   D81        0.00408  -0.00006   0.00000  -0.00063  -0.00066   0.00342
   D82        3.14099  -0.00006   0.00000   0.00023   0.00021   3.14121
   D83       -3.14035   0.00036   0.00000   0.00180   0.00177  -3.13859
   D84       -0.00344   0.00035   0.00000   0.00266   0.00264  -0.00080
   D85        1.54176   0.00113   0.00000   0.01902   0.01895   1.56071
   D86        2.98529  -0.00057   0.00000  -0.00597  -0.00589   2.97940
   D87       -0.11206   0.00002   0.00000  -0.00601  -0.00595  -0.11801
   D88       -0.06647   0.00012   0.00000  -0.00252  -0.00247  -0.06894
   D89        3.11937   0.00072   0.00000  -0.00257  -0.00253   3.11683
   D90       -2.90937  -0.00017   0.00000   0.00395   0.00383  -2.90554
   D91        0.22308   0.00016   0.00000   0.00202   0.00196   0.22503
   D92        0.13561  -0.00079   0.00000   0.00081   0.00073   0.13634
   D93       -3.01513  -0.00045   0.00000  -0.00112  -0.00115  -3.01628
   D94       -3.12336  -0.00093   0.00000   0.00012   0.00004  -3.12332
   D95        0.02925  -0.00044   0.00000  -0.00151  -0.00153   0.02772
   D96        0.06129  -0.00084   0.00000  -0.00084  -0.00091   0.06038
   D97       -3.06929  -0.00035   0.00000  -0.00247  -0.00247  -3.07176
   D98       -2.11527   0.00087   0.00000  -0.02314  -0.02295  -2.13822
   D99        0.98354   0.00075   0.00000  -0.02231  -0.02213   0.96141
   D100      -0.02941   0.00070   0.00000   0.00258   0.00259  -0.02682
   D101       3.06588   0.00011   0.00000   0.00269   0.00273   3.06861
   D102      -3.12912   0.00078   0.00000   0.00174   0.00177  -3.12735
   D103      -0.03383   0.00018   0.00000   0.00185   0.00190  -0.03193
   D104       3.13299   0.00041   0.00000  -0.00218  -0.00211   3.13088
   D105      -0.00009   0.00024   0.00000  -0.00070  -0.00065  -0.00074
   D106      -0.01960  -0.00008   0.00000  -0.00055  -0.00055  -0.02014
   D107       3.13051  -0.00026   0.00000   0.00093   0.00092   3.13143
   D108      -2.98862  -0.00044   0.00000   0.00121   0.00117  -2.98745
   D109       0.13414   0.00007   0.00000   0.00157   0.00154   0.13568
   D110      -3.13231   0.00005   0.00000   0.00326   0.00323  -3.12908
   D111      -0.00954   0.00056   0.00000   0.00362   0.00359  -0.00595
   D112       0.20444  -0.00111   0.00000  -0.00872  -0.00872   0.19572
   D113      -2.95598  -0.00061   0.00000  -0.00835  -0.00835  -2.96434
   D114      -0.13533  -0.00016   0.00000  -0.00146  -0.00143  -0.13676
   D115       2.98646   0.00049   0.00000  -0.00220  -0.00213   2.98433
   D116       0.00790  -0.00061   0.00000  -0.00333  -0.00331   0.00460
   D117       3.12970   0.00004   0.00000  -0.00406  -0.00401   3.12569
   D118       2.95483   0.00050   0.00000   0.00846   0.00846   2.96329
   D119      -0.20656   0.00115   0.00000   0.00773   0.00776  -0.19880
   D120      -1.58672  -0.00041   0.00000  -0.03379  -0.03386  -1.62058
   D121       1.68812  -0.00032   0.00000  -0.03437  -0.03445   1.65367
   D122       3.11720   0.00015   0.00000  -0.00153  -0.00151   3.11569
   D123      -0.04415  -0.00004   0.00000   0.00042   0.00045  -0.04371
   D124      -0.06312   0.00105   0.00000   0.00756   0.00757  -0.05555
   D125       3.05871   0.00087   0.00000   0.00951   0.00954   3.06825
   D126      -3.05280  -0.00046   0.00000  -0.00452  -0.00449  -3.05729
   D127       0.06903  -0.00064   0.00000  -0.00256  -0.00253   0.06650
   D128       0.04289  -0.00002   0.00000  -0.00028  -0.00031   0.04258
   D129      -3.11826  -0.00020   0.00000   0.00116   0.00113  -3.11713
   D130      -3.05972  -0.00091   0.00000  -0.00954  -0.00954  -3.06925
   D131       0.06232  -0.00109   0.00000  -0.00810  -0.00810   0.05422
   D132      -0.07025   0.00057   0.00000   0.00268   0.00265  -0.06761
   D133       3.05178   0.00039   0.00000   0.00412   0.00408   3.05587
   D134       0.78603   0.00125   0.00000   0.00527   0.00532   0.79135
   D135      -2.40718   0.00166   0.00000   0.00501   0.00505  -2.40214
   D136      -2.33001   0.00073   0.00000   0.00431   0.00434  -2.32567
   D137       0.75996   0.00114   0.00000   0.00405   0.00407   0.76403
   D138       3.07681   0.00009   0.00000  -0.00095  -0.00098   3.07583
   D139      -0.02039   0.00023   0.00000   0.00044   0.00043  -0.01996
   D140      -0.01409  -0.00031   0.00000  -0.00067  -0.00069  -0.01478
   D141      -3.11129  -0.00017   0.00000   0.00072   0.00072  -3.11057
   D142       0.10264   0.00020   0.00000   0.00063   0.00065   0.10329
   D143      -3.01978  -0.00034   0.00000   0.00019   0.00021  -3.01957
   D144      -3.08979   0.00062   0.00000   0.00029   0.00030  -3.08949
   D145       0.07097   0.00007   0.00000  -0.00015  -0.00013   0.07084
   D146      -0.03692   0.00015   0.00000   0.00073   0.00073  -0.03619
   D147       3.13868   0.00010   0.00000   0.00080   0.00081   3.13949
   D148       3.06058   0.00002   0.00000  -0.00063  -0.00064   3.05994
   D149      -0.04700  -0.00003   0.00000  -0.00056  -0.00057  -0.04756
   D150       0.02948   0.00003   0.00000  -0.00014  -0.00013   0.02935
   D151      -3.10457  -0.00012   0.00000  -0.00001  -0.00001  -3.10458
   D152       3.13662   0.00008   0.00000  -0.00022  -0.00021   3.13640
   D153       0.00256  -0.00007   0.00000  -0.00009  -0.00009   0.00247
   D154      -3.13347  -0.00036   0.00000   0.00146   0.00145  -3.13202
   D155       0.02809  -0.00021   0.00000  -0.00057  -0.00058   0.02751
   D156       0.00075  -0.00022   0.00000   0.00133   0.00133   0.00209
   D157      -3.12088  -0.00007   0.00000  -0.00070  -0.00070  -3.12158
   D158      -0.04082  -0.00015   0.00000  -0.00142  -0.00143  -0.04224
   D159       3.08269   0.00034   0.00000  -0.00107  -0.00108   3.08161
   D160       3.08161  -0.00031   0.00000   0.00046   0.00046   3.08207
   D161      -0.07807   0.00017   0.00000   0.00080   0.00080  -0.07727
   D162       0.04328   0.00029   0.00000   0.00116   0.00117   0.04444
   D163      -3.07945   0.00045   0.00000  -0.00018  -0.00017  -3.07962
   D164      -3.07918  -0.00034   0.00000   0.00183   0.00181  -3.07738
   D165       0.08127  -0.00018   0.00000   0.00049   0.00047   0.08174
   D166       3.08672  -0.00087   0.00000   0.00014   0.00010   3.08682
   D167      -0.10359  -0.00054   0.00000  -0.00338  -0.00339  -0.10698
   D168      -0.07509  -0.00017   0.00000  -0.00052  -0.00052  -0.07561
   D169       3.01779   0.00016   0.00000  -0.00404  -0.00401   3.01378
   D170       3.13272   0.00042   0.00000  -0.00173  -0.00170   3.13102
   D171      -0.00162   0.00022   0.00000  -0.00125  -0.00123  -0.00285
   D172      -0.02862   0.00028   0.00000  -0.00022  -0.00020  -0.02882
   D173       3.12023   0.00008   0.00000   0.00026   0.00027   3.12049
   D174      -0.03042  -0.00010   0.00000  -0.00034  -0.00034  -0.03076
   D175      -3.13832  -0.00009   0.00000   0.00092   0.00091  -3.13741
   D176       3.10376   0.00011   0.00000  -0.00083  -0.00081   3.10295
   D177      -0.00414   0.00011   0.00000   0.00043   0.00044  -0.00370
   D178       0.03688  -0.00016   0.00000   0.00042   0.00040   0.03728
   D179      -3.05877  -0.00000   0.00000   0.00135   0.00134  -3.05743
   D180      -3.13801  -0.00016   0.00000  -0.00080  -0.00081  -3.13882
   D181       0.04953  -0.00000   0.00000   0.00012   0.00012   0.04965
   D182       0.01656   0.00041   0.00000   0.00016   0.00018   0.01674
   D183      -3.07617   0.00005   0.00000   0.00352   0.00351  -3.07266
   D184       3.11181   0.00025   0.00000  -0.00076  -0.00074   3.11106
   D185       0.01908  -0.00010   0.00000   0.00261   0.00258   0.02166
   D186       2.37147  -0.00174   0.00000   0.00155   0.00142   2.37288
   D187      -0.77893  -0.00156   0.00000   0.00003  -0.00009  -0.77902
   D188      -0.81992  -0.00137   0.00000  -0.00184  -0.00193  -0.82185
   D189       2.31288  -0.00119   0.00000  -0.00337  -0.00344   2.30943
   D190      -0.10278   0.00050   0.00000   0.00067   0.00069  -0.10208
   D191       3.04818   0.00016   0.00000   0.00265   0.00261   3.05079
   D192       3.04708   0.00034   0.00000   0.00213   0.00213   3.04921
   D193      -0.08515  -0.00000   0.00000   0.00410   0.00405  -0.08110
   D194      -0.00891   0.00019   0.00000   0.00274   0.00271  -0.00620
   D195       3.13735   0.00020   0.00000   0.00189   0.00185   3.13920
   D196       3.13538   0.00007   0.00000   0.00118   0.00119   3.13657
   D197      -0.00155   0.00008   0.00000   0.00033   0.00033  -0.00122
         Item               Value     Threshold  Converged?
 Maximum Force            0.021045     0.000450     NO 
 RMS     Force            0.002731     0.000300     NO 
 Maximum Displacement     0.219876     0.001800     NO 
 RMS     Displacement     0.042950     0.001200     NO 
 Predicted change in Energy=-3.286346D-03
 GradGradGradGradGradGradGradGradGradGradGradGradGradGradGradGradGradGrad

 Stoichiometry    C34H21BrMnN3O3
 Framework group  C1[X(C34H21BrMnN3O3)]
 Deg. of freedom   183
 Full point group                 C1      NOp   1
 Largest Abelian subgroup         C1      NOp   1
 Largest concise Abelian subgroup C1      NOp   1
                         Standard orientation:                         
 ---------------------------------------------------------------------
 Center     Atomic      Atomic             Coordinates (Angstroms)
 Number     Number       Type             X           Y           Z
 ---------------------------------------------------------------------
      1         25           0       -1.635423   -1.884692   -0.074109
      2          6           0       -2.565743   -2.738188   -1.406402
      3          8           0       -3.049532   -3.345764   -2.247549
      4          6           0       -2.575730   -2.804743    1.206790
      5          8           0       -3.076054   -3.445159    2.013365
      6          6           0       -0.482239   -3.225043   -0.099242
      7          7           0       -0.641654   -0.962027    1.513876
      8          6           0       -0.766870    0.452849    3.443074
      9          6           0        0.618075    0.586748    3.465823
     10          6           0        0.687826   -0.909061    1.611629
     11          1           0       -1.392819    0.959277    4.178662
     12          1           0        1.101769    1.229144    4.205739
     13          7           0       -1.930531    0.916540    0.048534
     14          6           0       -1.990378    2.067987    0.071456
     15          6           0       -2.118782    3.498002    0.124128
     16          6           0       -1.022866    4.310159   -0.174561
     17          6           0       -1.164148    5.696461   -0.130256
     18          6           0       -3.350237    4.062237    0.474257
     19          1           0       -0.071991    3.853502   -0.444700
     20          1           0       -4.194836    3.411666    0.707762
     21          7           0       -0.635042   -0.835671   -1.567245
     22          6           0       -0.791568    0.798893   -3.307446
     23          6           0        0.594022    0.940472   -3.339298
     24          1           0       -1.439275    1.392674   -3.950004
     25          6           0       -1.357679   -0.309712    2.448326
     26          1           0       -2.445297   -0.379249    2.367947
     27          6           0       -1.364165   -0.080787   -2.404442
     28          1           0       -2.449788   -0.162371   -2.310349
     29          1           0       -0.314232    6.338757   -0.365460
     30          8           0        0.224795   -4.136770   -0.109761
     31          6           0        2.934985    0.256731    0.018023
     32          6           0        5.668600    0.024153    0.008105
     33          6           0        1.382082   -0.109506    2.527290
     34          6           0        2.867617   -0.047076    2.498535
     35          6           0        3.588269   -0.163842    3.660653
     36          6           0        5.015538   -0.187303    3.655704
     37          6           0        5.705440   -0.135591    2.479248
     38          6           0        5.003614   -0.020663    1.234228
     39          6           0        3.579093    0.073087    1.241411
     40          1           0        3.062622   -0.284427    4.611645
     41          1           0        5.548107   -0.279738    4.605119
     42          1           0        6.797816   -0.187729    2.464766
     43          6           0        3.579089    0.198356   -1.217226
     44          6           0        5.004933    0.105631   -1.219400
     45          6           0        5.704827    0.121138   -2.471419
     46          6           0        5.012217    0.189432   -3.645792
     47          6           0        3.583856    0.208544   -3.647859
     48          6           0        2.863286    0.203003   -2.479019
     49          1           0        6.797558    0.069990   -2.465437
     50          1           0        5.544519    0.197363   -4.600525
     51          1           0        3.059018    0.183088   -4.606192
     52          6           0        1.374757    0.134841   -2.506795
     53          1           0        1.064284    1.675774   -3.997886
     54          6           0        0.693197   -0.774266   -1.683524
     55          1           0        1.267267   -1.478516   -1.083674
     56          1           0        1.252224   -1.537780    0.923814
     57          6           0       -2.388259    6.264323    0.214378
     58          6           0       -3.478106    5.449840    0.519621
     59          1           0       -4.432928    5.899252    0.790797
     60          1           0       -2.494990    7.353673    0.246842
     61         35           0       -4.417697   -0.939811   -0.105816
     62          1           0        6.780989    0.022358    0.013279
     63          1           0        1.854588    0.501020    0.029560
 ---------------------------------------------------------------------
 Rotational constants (GHZ):           0.0893384           0.0577592           0.0521752
 Basis read from rwf:  (5D, 7F)
 There are   802 symmetry adapted cartesian basis functions of A   symmetry.
 There are   751 symmetry adapted basis functions of A   symmetry.
   751 basis functions,  1339 primitive gaussians,   802 cartesian basis functions
   165 alpha electrons      165 beta electrons
       nuclear repulsion energy      6090.9003403724 Hartrees.
 NAtoms=   63 NActive=   63 NUniq=   63 SFac= 1.00D+00 NAtFMM=   60 NAOKFM=T Big=T
 Integral buffers will be    131072 words long.
 Raffenetti 2 integral format.
 Two-electron integral symmetry is turned on.
 Nuclear repulsion after empirical dispersion term =     6090.8347100502 Hartrees.
 ------------------------------------------------------------------------------
 Polarizable Continuum Model (PCM)
 =================================
 Model                : PCM.
 Atomic radii         : UFF (Universal Force Field).
 Polarization charges : Total charges.
 Charge compensation  : None.
 Solution method      : On-the-fly selection.
 Cavity type          : Scaled VdW (van der Waals Surface) (Alpha=1.100).
 Cavity algorithm     : GePol (No added spheres)
                        Default sphere list used, NSphG=   63.
                        Lebedev-Laikov grids with approx.  5.0 points / Ang**2.
                        Smoothing algorithm: York/Karplus (Gamma=1.0000).
                        Polarization charges: spherical gaussians, with
                                              point-specific exponents (IZeta= 3).
                        Self-potential: point-specific (ISelfS= 7).
                        Self-field    : sphere-specific E.n sum rule (ISelfD= 2).
 1st derivatives      : Analytical E(r).r(x)/FMM algorithm (CHGder, D1EAlg=3).
                        Cavity 1st derivative terms included.
 Solvent              : TetraHydroFuran, Eps=   7.425700 Eps(inf)=   1.974025
 ------------------------------------------------------------------------------
 One-electron integrals computed using PRISM.
 PrsmSu:  requested number of processors reduced to:  11 ShMem   1 Linda.
 NBasis=   751 RedAO= T EigKep=  2.23D-04  NBF=   751
 NBsUse=   751 1.00D-06 EigRej= -1.00D+00 NBFU=   751
 Initial guess from the checkpoint file:  "checkpoint.chk"
 B after Tr=     0.000000    0.000000   -0.000000
         Rot=    0.999931   -0.000054    0.000130   -0.011710 Ang=  -1.34 deg.
 ExpMin= 3.93D-02 ExpMax= 2.77D+05 ExpMxC= 1.70D+04 IAcc=3 IRadAn=         5 AccDes= 0.00D+00
 Harris functional with IExCor= 4639 and IRadAn=       5 diagonalized for initial guess.
 HarFok:  IExCor= 4639 AccDes= 0.00D+00 IRadAn=         5 IDoV= 1 UseB2=F ITyADJ=14
 ICtDFT=  3500011 ScaDFX=  1.000000  1.000000  1.000000  1.000000
 FoFCou: FMM=F IPFlag=           0 FMFlag=      100000 FMFlg1=        2001
         NFxFlg=           0 DoJE=T BraDBF=F KetDBF=T FulRan=T
         wScrn=  0.000000 ICntrl=       500 IOpCl=  0 I1Cent=   200000004 NGrid=           0
         NMat0=    1 NMatS0=      1 NMatT0=    0 NMatD0=    1 NMtDS0=    0 NMtDT0=    0
 Petite list used in FoFCou.
 Requested convergence on RMS density matrix=1.00D-08 within 128 cycles.
 Requested convergence on MAX density matrix=1.00D-06.
 Requested convergence on             energy=1.00D-06.
 No special actions if energy rises.
 CoulSu:  requested number of processors reduced to:   9 ShMem   1 Linda.
 Inv3:  Mode=1 IEnd=    68516523.
 Iteration    1 A*A^-1 deviation from unit magnitude is 3.33D-15 for   2937.
 Iteration    1 A*A^-1 deviation from orthogonality  is 2.55D-15 for   3052    411.
 Iteration    1 A^-1*A deviation from unit magnitude is 3.33D-15 for   2937.
 Iteration    1 A^-1*A deviation from orthogonality  is 2.44D-15 for   4044   2294.
 CoulSu:  requested number of processors reduced to:   9 ShMem   1 Linda.
 CoulSu:  requested number of processors reduced to:   9 ShMem   1 Linda.
 Error on total polarization charges =  0.01877
 SCF Done:  E(RwB97XD) =  -5421.43495267     A.U. after   15 cycles
            NFock= 15  Conv=0.57D-08     -V/T= 2.0041
 PrsmSu:  requested number of processors reduced to:  11 ShMem   1 Linda.
 D1PCM: PCM CHGder 1st derivatives, ID1Alg=3 FixD1E=F DoIter=F DoCFld=F I1PDM=0.
 CoulSu:  requested number of processors reduced to:  10 ShMem   1 Linda.
 CoulSu:  requested number of processors reduced to:  10 ShMem   1 Linda.
 Calling FoFJK, ICntrl=      2127 FMM=T ISym2X=0 I1Cent= 0 IOpClX= 0 NMat=1 NMatS=1 NMatT=0.
