48
	Energy: -3649658.8386452
Mn         2.94879       -0.00025        0.12471
C          3.97022        1.31830        0.85679
C          3.96182       -0.00014       -1.35490
C          3.97001       -1.31910        0.85654
Br         1.73468       -0.00007        2.44805
N          1.60134       -1.48592       -0.67352
N          1.60150        1.48566       -0.67326
C          1.97159       -2.28108       -1.69304
C          1.11649       -3.20184       -2.27962
C         -0.19514       -3.29916       -1.81964
C         -0.59513       -2.47685       -0.76916
C          0.35230       -1.60998       -0.21858
C          0.35219        1.60920       -0.21894
C         -0.59486        2.47684       -0.76896
C          1.97235        2.28192       -1.69171
C          1.11762        3.20336       -2.27774
C         -0.19422        3.30031       -1.81829
C         -1.97732        2.48554       -0.21465
C         -1.97744       -2.48560       -0.21448
C         -2.82465       -1.37206       -0.36477
C         -2.82457        1.37202       -0.36487
C         -4.09818       -1.37449        0.21979
C         -4.09814        1.37458        0.21960
C         -2.44890        3.60631        0.47596
C         -2.44894       -3.60622        0.47640
C         -3.71896       -3.60822        1.04849
C         -3.71898        3.60847        1.04791
C         -4.53626        2.48666        0.94250
C         -4.53624       -2.48643        0.94293
S         -2.32082       -0.00007       -1.37932
S         -5.20137        0.00005       -0.00131
H          1.47675       -3.82537       -3.09804
H         -0.89948       -3.99741       -2.27676
H          0.08756       -1.00457        0.64773
H          0.08689        1.00280        0.64649
H          2.99631        2.18286       -2.05274
H          1.47834        3.82777       -3.09530
H         -0.89824        3.99921       -2.27494
H         -1.79729        4.47586        0.58361
H         -1.79734       -4.47578        0.58410
H         -4.06783       -4.48379        1.59866
H         -4.06788        4.48415        1.59787
H         -5.52121        2.47194        1.41320
H         -5.52116       -2.47162        1.41371
O          4.66785       -0.00003       -2.26307
O          4.60151       -2.15378        1.31769
O          4.60197        2.15285        1.31785
H          2.99535       -2.18169       -2.05453
