 Entering Gaussian System, Link 0=g16
 Initial command:
 /home1/apps/gaussian/16rA.03/g16/l1.exe "/tmp/Gau-251070.inp" -scrdir="/tmp/"
 Entering Link 1 = /home1/apps/gaussian/16rA.03/g16/l1.exe PID=    251071.
  
 Copyright (c) 1988,1990,1992,1993,1995,1998,2003,2009,2016,
            Gaussian, Inc.  All Rights Reserved.
  
 This is part of the Gaussian(R) 16 program.  It is based on
 the Gaussian(R) 09 system (copyright 2009, Gaussian, Inc.),
 the Gaussian(R) 03 system (copyright 2003, Gaussian, Inc.),
 the Gaussian(R) 98 system (copyright 1998, Gaussian, Inc.),
 the Gaussian(R) 94 system (copyright 1995, Gaussian, Inc.),
 the Gaussian 92(TM) system (copyright 1992, Gaussian, Inc.),
 the Gaussian 90(TM) system (copyright 1990, Gaussian, Inc.),
 the Gaussian 88(TM) system (copyright 1988, Gaussian, Inc.),
 the Gaussian 86(TM) system (copyright 1986, Carnegie Mellon
 University), and the Gaussian 82(TM) system (copyright 1983,
 Carnegie Mellon University). Gaussian is a federally registered
 trademark of Gaussian, Inc.
  
 This software contains proprietary and confidential information,
 including trade secrets, belonging to Gaussian, Inc.
  
 This software is provided under written license and may be
 used, copied, transmitted, or stored only in accord with that
 written license.
  
 The following legend is applicable only to US Government
 contracts under FAR:
  
                    RESTRICTED RIGHTS LEGEND
  
 Use, reproduction and disclosure by the US Government is
 subject to restrictions as set forth in subparagraphs (a)
 and (c) of the Commercial Computer Software - Restricted
 Rights clause in FAR 52.227-19.
  
 Gaussian, Inc.
 340 Quinnipiac St., Bldg. 40, Wallingford CT 06492
  
  
 ---------------------------------------------------------------
 Warning -- This program may not be used in any manner that
 competes with the business of Gaussian, Inc. or will provide
 assistance to any competitor of Gaussian, Inc.  The licensee
 of this program is prohibited from giving any competitor of
 Gaussian, Inc. access to this program.  By using this program,
 the user acknowledges that Gaussian, Inc. is engaged in the
 business of creating and licensing software in the field of
 computational chemistry and represents and warrants to the
 licensee that it is not a competitor of Gaussian, Inc. and that
 it will not use this program in any manner prohibited above.
 ---------------------------------------------------------------
  

 Cite this work as:
 Gaussian 16, Revision A.03,
 M. J. Frisch, G. W. Trucks, H. B. Schlegel, G. E. Scuseria, 
 M. A. Robb, J. R. Cheeseman, G. Scalmani, V. Barone, 
 G. A. Petersson, H. Nakatsuji, X. Li, M. Caricato, A. V. Marenich, 
 J. Bloino, B. G. Janesko, R. Gomperts, B. Mennucci, H. P. Hratchian, 
 J. V. Ortiz, A. F. Izmaylov, J. L. Sonnenberg, D. Williams-Young, 
 F. Ding, F. Lipparini, F. Egidi, J. Goings, B. Peng, A. Petrone, 
 T. Henderson, D. Ranasinghe, V. G. Zakrzewski, J. Gao, N. Rega, 
 G. Zheng, W. Liang, M. Hada, M. Ehara, K. Toyota, R. Fukuda, 
 J. Hasegawa, M. Ishida, T. Nakajima, Y. Honda, O. Kitao, H. Nakai, 
 T. Vreven, K. Throssell, J. A. Montgomery, Jr., J. E. Peralta, 
 F. Ogliaro, M. J. Bearpark, J. J. Heyd, E. N. Brothers, K. N. Kudin, 
 V. N. Staroverov, T. A. Keith, R. Kobayashi, J. Normand, 
 K. Raghavachari, A. P. Rendell, J. C. Burant, S. S. Iyengar, 
 J. Tomasi, M. Cossi, J. M. Millam, M. Klene, C. Adamo, R. Cammi, 
 J. W. Ochterski, R. L. Martin, K. Morokuma, O. Farkas, 
 J. B. Foresman, and D. J. Fox, Gaussian, Inc., Wallingford CT, 2016.
 
 ******************************************
 Gaussian 16:  ES64L-G16RevA.03 25-Dec-2016
                16-Sep-2022 
 ******************************************
 %NProcShared=24
 Will use up to   24 processors via shared memory.
 %Chk=checkpoint.chk
 -----------------------------------------------
 # wB97XD Gen Opt SCRF=(Solvent=TetraHydroFuran)
 -----------------------------------------------
 1/18=20,19=15,26=3,38=1/1,3;
 2/9=110,12=2,17=6,18=5,40=1/2;
 3/5=7,11=2,25=1,30=1,70=2201,71=1,72=20,74=-58/1,2,3;
 4//1;
 5/5=2,38=5,53=20/2;
 6/7=2,8=2,9=2,10=2,28=1/1;
 7//1,2,3,16;
 1/18=20,19=15,26=3/3(2);
 2/9=110/2;
 99//99;
 2/9=110/2;
 3/5=7,6=1,11=2,25=1,30=1,70=2205,71=1,72=20,74=-58,82=7/1,2,3;
 4/5=5,16=3,69=1/1;
 5/5=2,38=5,53=20/2;
 7//1,2,3,16;
 1/18=20,19=15,26=3/3(-5);
 2/9=110/2;
 6/7=2,8=2,9=2,10=2,19=2,28=1/1;
 99/9=1/99;
 --------------------------------------
 Mn Reactant Free Geometry Optimization
 --------------------------------------
 Symbolic Z-matrix:
 Charge =  0 Multiplicity = 1
 Mn                   -1.32368   0.68993  -1.33405 
 C                     0.21206  -0.06061  -1.86291 
 C                    -2.18233  -0.07454  -2.68288 
 C                    -1.69459  -0.70753  -0.27976 
 Br                   -0.00101   1.61276   0.63032 
 N                    -3.12606   1.72605  -0.64792 
 N                    -0.88146   2.48355  -2.5082 
 C                    -4.35624   1.28383  -0.99504 
 C                    -5.51916   1.93847  -0.60928 
 C                    -5.42697   3.11602   0.1359 
 C                    -4.16111   3.59115   0.48563 
 C                    -3.04404   2.84348   0.09012 
 C                    -0.63743   3.65948  -1.91033 
 C                    -0.42454   4.85291  -2.61296 
 C                    -0.88747   2.44759  -3.86033 
 C                    -0.6433    3.57385  -4.63592 
 C                    -0.41543   4.80056  -4.00858 
 C                    -0.20649   6.10712  -1.85159 
 C                    -3.95377   4.83986   1.25897 
 C                    -3.26492   5.93212   0.68965 
 C                    -1.21548   6.62525  -1.01163 
 C                    -3.02277   7.08587   1.4533 
 C                    -0.97094   7.78005  -0.25003 
 C                     1.01013   6.7953   -1.95591 
 C                    -4.44067   4.95183   2.5686 
 C                    -4.1987    6.10013   3.32333 
 C                     1.24832   7.94213  -1.19786 
 C                     0.27201   8.42044  -0.32446 
 C                    -3.46754   7.15562   2.7793 
 S                    -2.82398   5.87818  -1.02744 
 S                    -2.24097   8.50782   0.7458 
 H                    -6.4859    1.53174  -0.90405 
 H                    -6.32104   3.66838   0.4285 
 H                    -2.04396   3.12415   0.42023 
 H                    -0.55834   3.63424  -0.82384 
 H                    -1.08921   1.481    -4.31818 
 H                    -0.64542   3.48767  -5.72194 
 H                    -0.24922   5.70785  -4.59109 
 H                     1.78505   6.39775  -2.61224 
 H                    -4.98046   4.1098    3.00326 
 H                    -4.56194   6.16505   4.34908 
 H                     2.20805   8.45409  -1.26978 
 H                     0.45899   9.29863   0.29427 
 H                    -3.24872   8.04515   3.37086 
 O                    -2.71836  -0.63432  -3.55937 
 O                    -1.94394  -1.62216   0.38727 
 O                     1.1979   -0.55393  -2.22124 
 H                    -4.39411   0.37504  -1.59288 
 
 Add virtual bond connecting atoms N6         and Mn1        Dist= 4.14D+00.
 Add virtual bond connecting atoms N7         and Mn1        Dist= 4.14D+00.

 GradGradGradGradGradGradGradGradGradGradGradGradGradGradGradGradGradGrad
 Berny optimization.
 Initialization pass.
                           ----------------------------
                           !    Initial Parameters    !
                           ! (Angstroms and Degrees)  !
 --------------------------                            --------------------------
 ! Name  Definition              Value          Derivative Info.                !
 --------------------------------------------------------------------------------
 ! R1    R(1,2)                  1.7893         estimate D2E/DX2                !
 ! R2    R(1,3)                  1.7723         estimate D2E/DX2                !
 ! R3    R(1,4)                  1.7894         estimate D2E/DX2                !
 ! R4    R(1,5)                  2.5416         estimate D2E/DX2                !
 ! R5    R(1,6)                  2.1893         estimate D2E/DX2                !
 ! R6    R(1,7)                  2.1889         estimate D2E/DX2                !
 ! R7    R(2,47)                 1.1592         estimate D2E/DX2                !
 ! R8    R(3,45)                 1.17           estimate D2E/DX2                !
 ! R9    R(4,46)                 1.1592         estimate D2E/DX2                !
 ! R10   R(6,8)                  1.3526         estimate D2E/DX2                !
 ! R11   R(6,12)                 1.3417         estimate D2E/DX2                !
 ! R12   R(7,13)                 1.3416         estimate D2E/DX2                !
 ! R13   R(7,15)                 1.3526         estimate D2E/DX2                !
 ! R14   R(8,9)                  1.3891         estimate D2E/DX2                !
 ! R15   R(8,48)                 1.0885         estimate D2E/DX2                !
 ! R16   R(9,10)                 1.3966         estimate D2E/DX2                !
 ! R17   R(9,32)                 1.0895         estimate D2E/DX2                !
 ! R18   R(10,11)                1.3966         estimate D2E/DX2                !
 ! R19   R(10,33)                1.0909         estimate D2E/DX2                !
 ! R20   R(11,12)                1.4012         estimate D2E/DX2                !
 ! R21   R(11,19)                1.4833         estimate D2E/DX2                !
 ! R22   R(12,34)                1.0899         estimate D2E/DX2                !
 ! R23   R(13,14)                1.4012         estimate D2E/DX2                !
 ! R24   R(13,35)                1.0897         estimate D2E/DX2                !
 ! R25   R(14,17)                1.3966         estimate D2E/DX2                !
 ! R26   R(14,18)                1.4833         estimate D2E/DX2                !
 ! R27   R(15,16)                1.3891         estimate D2E/DX2                !
 ! R28   R(15,36)                1.0884         estimate D2E/DX2                !
 ! R29   R(16,17)                1.3965         estimate D2E/DX2                !
 ! R30   R(16,37)                1.0894         estimate D2E/DX2                !
 ! R31   R(17,38)                1.0909         estimate D2E/DX2                !
 ! R32   R(18,21)                1.4114         estimate D2E/DX2                !
 ! R33   R(18,24)                1.4017         estimate D2E/DX2                !
 ! R34   R(19,20)                1.4113         estimate D2E/DX2                !
 ! R35   R(19,25)                1.4017         estimate D2E/DX2                !
 ! R36   R(20,22)                1.4046         estimate D2E/DX2                !
 ! R37   R(20,30)                1.7736         estimate D2E/DX2                !
 ! R38   R(21,23)                1.4048         estimate D2E/DX2                !
 ! R39   R(21,30)                1.7736         estimate D2E/DX2                !
 ! R40   R(22,29)                1.4003         estimate D2E/DX2                !
 ! R41   R(22,31)                1.7702         estimate D2E/DX2                !
 ! R42   R(23,28)                1.4002         estimate D2E/DX2                !
 ! R43   R(23,31)                1.7704         estimate D2E/DX2                !
 ! R44   R(24,27)                1.3952         estimate D2E/DX2                !
 ! R45   R(24,39)                1.0906         estimate D2E/DX2                !
 ! R46   R(25,26)                1.3953         estimate D2E/DX2                !
 ! R47   R(25,40)                1.0906         estimate D2E/DX2                !
 ! R48   R(26,29)                1.3945         estimate D2E/DX2                !
 ! R49   R(26,41)                1.0901         estimate D2E/DX2                !
 ! R50   R(27,28)                1.3946         estimate D2E/DX2                !
 ! R51   R(27,42)                1.0901         estimate D2E/DX2                !
 ! R52   R(28,43)                1.0904         estimate D2E/DX2                !
 ! R53   R(29,44)                1.0905         estimate D2E/DX2                !
 ! A1    A(2,1,3)               90.57           estimate D2E/DX2                !
 ! A2    A(2,1,4)               91.4021         estimate D2E/DX2                !
 ! A3    A(2,1,5)               86.2204         estimate D2E/DX2                !
 ! A4    A(2,1,7)               90.6744         estimate D2E/DX2                !
 ! A5    A(3,1,4)               90.6368         estimate D2E/DX2                !
 ! A6    A(3,1,6)               92.5104         estimate D2E/DX2                !
 ! A7    A(3,1,7)               92.4697         estimate D2E/DX2                !
 ! A8    A(4,1,5)               86.3341         estimate D2E/DX2                !
 ! A9    A(4,1,6)               90.8195         estimate D2E/DX2                !
 ! A10   A(5,1,6)               90.8236         estimate D2E/DX2                !
 ! A11   A(5,1,7)               90.6832         estimate D2E/DX2                !
 ! A12   A(6,1,7)               86.9408         estimate D2E/DX2                !
 ! A13   A(1,6,8)              120.9055         estimate D2E/DX2                !
 ! A14   A(1,6,12)             121.0807         estimate D2E/DX2                !
 ! A15   A(8,6,12)             117.9749         estimate D2E/DX2                !
 ! A16   A(1,7,13)             121.061          estimate D2E/DX2                !
 ! A17   A(1,7,15)             120.8995         estimate D2E/DX2                !
 ! A18   A(13,7,15)            118.0079         estimate D2E/DX2                !
 ! A19   A(6,8,9)              122.4156         estimate D2E/DX2                !
 ! A20   A(6,8,48)             116.4611         estimate D2E/DX2                !
 ! A21   A(9,8,48)             121.122          estimate D2E/DX2                !
 ! A22   A(8,9,10)             119.3575         estimate D2E/DX2                !
 ! A23   A(8,9,32)             119.4577         estimate D2E/DX2                !
 ! A24   A(10,9,32)            121.1799         estimate D2E/DX2                !
 ! A25   A(9,10,11)            118.7055         estimate D2E/DX2                !
 ! A26   A(9,10,33)            121.06           estimate D2E/DX2                !
 ! A27   A(11,10,33)           120.2267         estimate D2E/DX2                !
 ! A28   A(10,11,12)           118.0594         estimate D2E/DX2                !
 ! A29   A(10,11,19)           122.9323         estimate D2E/DX2                !
 ! A30   A(12,11,19)           119.0073         estimate D2E/DX2                !
 ! A31   A(6,12,11)            123.4327         estimate D2E/DX2                !
 ! A32   A(6,12,34)            115.924          estimate D2E/DX2                !
 ! A33   A(11,12,34)           120.5724         estimate D2E/DX2                !
 ! A34   A(7,13,14)            123.418          estimate D2E/DX2                !
 ! A35   A(7,13,35)            115.9283         estimate D2E/DX2                !
 ! A36   A(14,13,35)           120.5774         estimate D2E/DX2                !
 ! A37   A(13,14,17)           118.0449         estimate D2E/DX2                !
 ! A38   A(13,14,18)           119.0203         estimate D2E/DX2                !
 ! A39   A(17,14,18)           122.9319         estimate D2E/DX2                !
 ! A40   A(7,15,16)            122.398          estimate D2E/DX2                !
 ! A41   A(7,15,36)            116.4197         estimate D2E/DX2                !
 ! A42   A(16,15,36)           121.1813         estimate D2E/DX2                !
 ! A43   A(15,16,17)           119.3445         estimate D2E/DX2                !
 ! A44   A(15,16,37)           119.4792         estimate D2E/DX2                !
 ! A45   A(17,16,37)           121.1717         estimate D2E/DX2                !
 ! A46   A(14,17,16)           118.7338         estimate D2E/DX2                !
 ! A47   A(14,17,38)           120.2252         estimate D2E/DX2                !
 ! A48   A(16,17,38)           121.0332         estimate D2E/DX2                !
 ! A49   A(14,18,21)           120.716          estimate D2E/DX2                !
 ! A50   A(14,18,24)           120.3            estimate D2E/DX2                !
 ! A51   A(21,18,24)           118.984          estimate D2E/DX2                !
 ! A52   A(11,19,20)           120.6271         estimate D2E/DX2                !
 ! A53   A(11,19,25)           120.3839         estimate D2E/DX2                !
 ! A54   A(20,19,25)           118.989          estimate D2E/DX2                !
 ! A55   A(19,20,22)           120.0368         estimate D2E/DX2                !
 ! A56   A(19,20,30)           119.2329         estimate D2E/DX2                !
 ! A57   A(22,20,30)           120.5617         estimate D2E/DX2                !
 ! A58   A(18,21,23)           119.9989         estimate D2E/DX2                !
 ! A59   A(18,21,30)           119.2357         estimate D2E/DX2                !
 ! A60   A(23,21,30)           120.5952         estimate D2E/DX2                !
 ! A61   A(20,22,29)           120.0643         estimate D2E/DX2                !
 ! A62   A(20,22,31)           121.2413         estimate D2E/DX2                !
 ! A63   A(29,22,31)           118.601          estimate D2E/DX2                !
 ! A64   A(21,23,28)           120.1113         estimate D2E/DX2                !
 ! A65   A(21,23,31)           121.1984         estimate D2E/DX2                !
 ! A66   A(28,23,31)           118.6002         estimate D2E/DX2                !
 ! A67   A(18,24,27)           120.7516         estimate D2E/DX2                !
 ! A68   A(18,24,39)           118.8544         estimate D2E/DX2                !
 ! A69   A(27,24,39)           120.3526         estimate D2E/DX2                !
 ! A70   A(19,25,26)           120.7231         estimate D2E/DX2                !
 ! A71   A(19,25,40)           118.8585         estimate D2E/DX2                !
 ! A72   A(26,25,40)           120.3776         estimate D2E/DX2                !
 ! A73   A(25,26,29)           120.1877         estimate D2E/DX2                !
 ! A74   A(25,26,41)           120.0135         estimate D2E/DX2                !
 ! A75   A(29,26,41)           119.7843         estimate D2E/DX2                !
 ! A76   A(24,27,28)           120.1778         estimate D2E/DX2                !
 ! A77   A(24,27,42)           120.0325         estimate D2E/DX2                !
 ! A78   A(28,27,42)           119.7746         estimate D2E/DX2                !
 ! A79   A(23,28,27)           119.8603         estimate D2E/DX2                !
 ! A80   A(23,28,43)           119.3667         estimate D2E/DX2                !
 ! A81   A(27,28,43)           120.7677         estimate D2E/DX2                !
 ! A82   A(22,29,26)           119.8836         estimate D2E/DX2                !
 ! A83   A(22,29,44)           119.3793         estimate D2E/DX2                !
 ! A84   A(26,29,44)           120.7311         estimate D2E/DX2                !
 ! A85   A(20,30,21)           101.7726         estimate D2E/DX2                !
 ! A86   A(22,31,23)           102.2059         estimate D2E/DX2                !
 ! A87   L(2,1,6,3,-1)         183.0804         estimate D2E/DX2                !
 ! A88   L(3,1,5,2,-1)         176.7904         estimate D2E/DX2                !
 ! A89   L(4,1,7,2,-1)         182.0765         estimate D2E/DX2                !
 ! A90   L(1,2,47,16,-1)       179.7146         estimate D2E/DX2                !
 ! A91   L(1,3,45,8,-1)        181.9677         estimate D2E/DX2                !
 ! A92   L(1,4,46,9,-1)        179.8309         estimate D2E/DX2                !
 ! A93   L(2,1,6,3,-2)         182.2568         estimate D2E/DX2                !
 ! A94   L(3,1,5,2,-2)         183.1169         estimate D2E/DX2                !
 ! A95   L(4,1,7,2,-2)         183.1276         estimate D2E/DX2                !
 ! A96   L(1,2,47,16,-2)       180.9659         estimate D2E/DX2                !
 ! A97   L(1,3,45,8,-2)        182.587          estimate D2E/DX2                !
 ! A98   L(1,4,46,9,-2)        178.9436         estimate D2E/DX2                !
 ! D1    D(3,1,6,8)             21.1413         estimate D2E/DX2                !
 ! D2    D(3,1,6,12)          -156.5433         estimate D2E/DX2                !
 ! D3    D(4,1,6,8)            -69.532          estimate D2E/DX2                !
 ! D4    D(4,1,6,12)           112.7833         estimate D2E/DX2                !
 ! D5    D(5,1,6,8)           -155.8772         estimate D2E/DX2                !
 ! D6    D(5,1,6,12)            26.4381         estimate D2E/DX2                !
 ! D7    D(7,1,6,8)            113.4826         estimate D2E/DX2                !
 ! D8    D(7,1,6,12)           -64.2021         estimate D2E/DX2                !
 ! D9    D(2,1,7,13)          -113.1831         estimate D2E/DX2                !
 ! D10   D(2,1,7,15)            68.9022         estimate D2E/DX2                !
 ! D11   D(3,1,7,13)           156.2173         estimate D2E/DX2                !
 ! D12   D(3,1,7,15)           -21.6974         estimate D2E/DX2                !
 ! D13   D(5,1,7,13)           -26.9552         estimate D2E/DX2                !
 ! D14   D(5,1,7,15)           155.1301         estimate D2E/DX2                !
 ! D15   D(6,1,7,13)            63.8332         estimate D2E/DX2                !
 ! D16   D(6,1,7,15)          -114.0815         estimate D2E/DX2                !
 ! D17   D(1,6,8,9)           -178.1234         estimate D2E/DX2                !
 ! D18   D(1,6,8,48)             2.2982         estimate D2E/DX2                !
 ! D19   D(12,6,8,9)            -0.3687         estimate D2E/DX2                !
 ! D20   D(12,6,8,48)         -179.9471         estimate D2E/DX2                !
 ! D21   D(1,6,12,11)          175.9311         estimate D2E/DX2                !
 ! D22   D(1,6,12,34)           -7.1224         estimate D2E/DX2                !
 ! D23   D(8,6,12,11)           -1.8195         estimate D2E/DX2                !
 ! D24   D(8,6,12,34)          175.127          estimate D2E/DX2                !
 ! D25   D(1,7,13,14)         -176.237          estimate D2E/DX2                !
 ! D26   D(1,7,13,35)            6.9284         estimate D2E/DX2                !
 ! D27   D(15,7,13,14)           1.7363         estimate D2E/DX2                !
 ! D28   D(15,7,13,35)        -175.0983         estimate D2E/DX2                !
 ! D29   D(1,7,15,16)          178.4063         estimate D2E/DX2                !
 ! D30   D(1,7,15,36)           -1.9592         estimate D2E/DX2                !
 ! D31   D(13,7,15,16)           0.4296         estimate D2E/DX2                !
 ! D32   D(13,7,15,36)        -179.9359         estimate D2E/DX2                !
 ! D33   D(6,8,9,10)             1.6639         estimate D2E/DX2                !
 ! D34   D(6,8,9,32)          -179.1249         estimate D2E/DX2                !
 ! D35   D(48,8,9,10)         -178.777          estimate D2E/DX2                !
 ! D36   D(48,8,9,32)            0.4343         estimate D2E/DX2                !
 ! D37   D(8,9,10,11)           -0.7997         estimate D2E/DX2                !
 ! D38   D(8,9,10,33)          178.1886         estimate D2E/DX2                !
 ! D39   D(32,9,10,11)        -179.997          estimate D2E/DX2                !
 ! D40   D(32,9,10,33)          -1.0086         estimate D2E/DX2                !
 ! D41   D(9,10,11,12)          -1.2026         estimate D2E/DX2                !
 ! D42   D(9,10,11,19)         179.173          estimate D2E/DX2                !
 ! D43   D(33,10,11,12)        179.8004         estimate D2E/DX2                !
 ! D44   D(33,10,11,19)          0.1759         estimate D2E/DX2                !
 ! D45   D(10,11,12,6)           2.6145         estimate D2E/DX2                !
 ! D46   D(10,11,12,34)       -174.1957         estimate D2E/DX2                !
 ! D47   D(19,11,12,6)        -177.746          estimate D2E/DX2                !
 ! D48   D(19,11,12,34)          5.4438         estimate D2E/DX2                !
 ! D49   D(10,11,19,20)       -116.9875         estimate D2E/DX2                !
 ! D50   D(10,11,19,25)         63.0034         estimate D2E/DX2                !
 ! D51   D(12,11,19,20)         63.3915         estimate D2E/DX2                !
 ! D52   D(12,11,19,25)       -116.6176         estimate D2E/DX2                !
 ! D53   D(7,13,14,17)          -2.5704         estimate D2E/DX2                !
 ! D54   D(7,13,14,18)         178.0268         estimate D2E/DX2                !
 ! D55   D(35,13,14,17)        174.1229         estimate D2E/DX2                !
 ! D56   D(35,13,14,18)         -5.2799         estimate D2E/DX2                !
 ! D57   D(13,14,17,16)          1.2222         estimate D2E/DX2                !
 ! D58   D(13,14,17,38)       -179.7764         estimate D2E/DX2                !
 ! D59   D(18,14,17,16)       -179.3999         estimate D2E/DX2                !
 ! D60   D(18,14,17,38)         -0.3985         estimate D2E/DX2                !
 ! D61   D(13,14,18,21)        -62.926          estimate D2E/DX2                !
 ! D62   D(13,14,18,24)        116.9886         estimate D2E/DX2                !
 ! D63   D(17,14,18,21)        117.7019         estimate D2E/DX2                !
 ! D64   D(17,14,18,24)        -62.3834         estimate D2E/DX2                !
 ! D65   D(7,15,16,17)          -1.6642         estimate D2E/DX2                !
 ! D66   D(7,15,16,37)         179.1094         estimate D2E/DX2                !
 ! D67   D(36,15,16,17)        178.7184         estimate D2E/DX2                !
 ! D68   D(36,15,16,37)         -0.508          estimate D2E/DX2                !
 ! D69   D(15,16,17,14)          0.7601         estimate D2E/DX2                !
 ! D70   D(15,16,17,38)       -178.2329         estimate D2E/DX2                !
 ! D71   D(37,16,17,14)        179.973          estimate D2E/DX2                !
 ! D72   D(37,16,17,38)          0.9799         estimate D2E/DX2                !
 ! D73   D(14,18,21,23)        177.059          estimate D2E/DX2                !
 ! D74   D(14,18,21,30)         -7.655          estimate D2E/DX2                !
 ! D75   D(24,18,21,23)         -2.8568         estimate D2E/DX2                !
 ! D76   D(24,18,21,30)        172.4293         estimate D2E/DX2                !
 ! D77   D(14,18,24,27)       -177.0566         estimate D2E/DX2                !
 ! D78   D(14,18,24,39)          0.612          estimate D2E/DX2                !
 ! D79   D(21,18,24,27)          2.8595         estimate D2E/DX2                !
 ! D80   D(21,18,24,39)       -179.4719         estimate D2E/DX2                !
 ! D81   D(11,19,20,22)       -177.1267         estimate D2E/DX2                !
 ! D82   D(11,19,20,30)          7.5663         estimate D2E/DX2                !
 ! D83   D(25,19,20,22)          2.8823         estimate D2E/DX2                !
 ! D84   D(25,19,20,30)       -172.4247         estimate D2E/DX2                !
 ! D85   D(11,19,25,26)        177.1503         estimate D2E/DX2                !
 ! D86   D(11,19,25,40)         -0.5336         estimate D2E/DX2                !
 ! D87   D(20,19,25,26)         -2.8587         estimate D2E/DX2                !
 ! D88   D(20,19,25,40)        179.4574         estimate D2E/DX2                !
 ! D89   D(19,20,22,29)         -0.173          estimate D2E/DX2                !
 ! D90   D(19,20,22,31)       -176.6101         estimate D2E/DX2                !
 ! D91   D(30,20,22,29)        175.0708         estimate D2E/DX2                !
 ! D92   D(30,20,22,31)         -1.3663         estimate D2E/DX2                !
 ! D93   D(19,20,30,21)       -141.1643         estimate D2E/DX2                !
 ! D94   D(22,20,30,21)         43.5539         estimate D2E/DX2                !
 ! D95   D(18,21,23,28)          0.1276         estimate D2E/DX2                !
 ! D96   D(18,21,23,31)        176.6269         estimate D2E/DX2                !
 ! D97   D(30,21,23,28)       -175.0935         estimate D2E/DX2                !
 ! D98   D(30,21,23,31)          1.4058         estimate D2E/DX2                !
 ! D99   D(18,21,30,20)        141.1616         estimate D2E/DX2                !
 ! D100  D(23,21,30,20)        -43.5811         estimate D2E/DX2                !
 ! D101  D(20,22,29,26)         -2.6145         estimate D2E/DX2                !
 ! D102  D(20,22,29,44)        178.267          estimate D2E/DX2                !
 ! D103  D(31,22,29,26)        173.916          estimate D2E/DX2                !
 ! D104  D(31,22,29,44)         -5.2025         estimate D2E/DX2                !
 ! D105  D(20,22,31,23)        -41.1282         estimate D2E/DX2                !
 ! D106  D(29,22,31,23)        142.3838         estimate D2E/DX2                !
 ! D107  D(21,23,28,27)          2.6541         estimate D2E/DX2                !
 ! D108  D(21,23,28,43)       -178.1865         estimate D2E/DX2                !
 ! D109  D(31,23,28,27)       -173.9354         estimate D2E/DX2                !
 ! D110  D(31,23,28,43)          5.2239         estimate D2E/DX2                !
 ! D111  D(21,23,31,22)         41.0971         estimate D2E/DX2                !
 ! D112  D(28,23,31,22)       -142.3519         estimate D2E/DX2                !
 ! D113  D(18,24,27,28)         -0.1038         estimate D2E/DX2                !
 ! D114  D(18,24,27,42)        178.4808         estimate D2E/DX2                !
 ! D115  D(39,24,27,28)       -177.7374         estimate D2E/DX2                !
 ! D116  D(39,24,27,42)          0.8472         estimate D2E/DX2                !
 ! D117  D(19,25,26,29)          0.0981         estimate D2E/DX2                !
 ! D118  D(19,25,26,41)       -178.5087         estimate D2E/DX2                !
 ! D119  D(40,25,26,29)        177.7469         estimate D2E/DX2                !
 ! D120  D(40,25,26,41)         -0.86           estimate D2E/DX2                !
 ! D121  D(25,26,29,22)          2.6616         estimate D2E/DX2                !
 ! D122  D(25,26,29,44)       -178.2321         estimate D2E/DX2                !
 ! D123  D(41,26,29,22)       -178.7284         estimate D2E/DX2                !
 ! D124  D(41,26,29,44)          0.378          estimate D2E/DX2                !
 ! D125  D(24,27,28,23)         -2.6753         estimate D2E/DX2                !
 ! D126  D(24,27,28,43)        178.1774         estimate D2E/DX2                !
 ! D127  D(42,27,28,23)        178.7365         estimate D2E/DX2                !
 ! D128  D(42,27,28,43)         -0.4108         estimate D2E/DX2                !
 --------------------------------------------------------------------------------
 Trust Radius=3.00D-01 FncErr=1.00D-07 GrdErr=1.00D-06 EigMax=2.50D+02 EigMin=1.00D-04
 Number of steps in this run=    288 maximum allowed number of steps=    288.
 GradGradGradGradGradGradGradGradGradGradGradGradGradGradGradGradGradGrad

                          Input orientation:                          
 ---------------------------------------------------------------------
 Center     Atomic      Atomic             Coordinates (Angstroms)
 Number     Number       Type             X           Y           Z
 ---------------------------------------------------------------------
      1         25           0       -1.323680    0.689931   -1.334050
      2          6           0        0.212059   -0.060612   -1.862914
      3          6           0       -2.182329   -0.074542   -2.682878
      4          6           0       -1.694594   -0.707533   -0.279762
      5         35           0       -0.001005    1.612762    0.630319
      6          7           0       -3.126060    1.726049   -0.647916
      7          7           0       -0.881463    2.483554   -2.508195
      8          6           0       -4.356242    1.283829   -0.995037
      9          6           0       -5.519156    1.938469   -0.609275
     10          6           0       -5.426966    3.116019    0.135897
     11          6           0       -4.161115    3.591151    0.485633
     12          6           0       -3.044041    2.843476    0.090124
     13          6           0       -0.637434    3.659482   -1.910334
     14          6           0       -0.424543    4.852907   -2.612958
     15          6           0       -0.887472    2.447594   -3.860328
     16          6           0       -0.643300    3.573851   -4.635915
     17          6           0       -0.415428    4.800563   -4.008579
     18          6           0       -0.206494    6.107119   -1.851588
     19          6           0       -3.953773    4.839861    1.258965
     20          6           0       -3.264918    5.932123    0.689650
     21          6           0       -1.215478    6.625251   -1.011628
     22          6           0       -3.022772    7.085872    1.453298
     23          6           0       -0.970940    7.780046   -0.250033
     24          6           0        1.010130    6.795295   -1.955909
     25          6           0       -4.440670    4.951826    2.568602
     26          6           0       -4.198696    6.100135    3.323325
     27          6           0        1.248321    7.942129   -1.197862
     28          6           0        0.272009    8.420440   -0.324462
     29          6           0       -3.467536    7.155625    2.779299
     30         16           0       -2.823979    5.878184   -1.027439
     31         16           0       -2.240974    8.507817    0.745797
     32          1           0       -6.485900    1.531744   -0.904049
     33          1           0       -6.321041    3.668378    0.428499
     34          1           0       -2.043960    3.124148    0.420227
     35          1           0       -0.558341    3.634239   -0.823837
     36          1           0       -1.089209    1.481003   -4.318178
     37          1           0       -0.645417    3.487671   -5.721939
     38          1           0       -0.249221    5.707854   -4.591094
     39          1           0        1.785048    6.397752   -2.612242
     40          1           0       -4.980462    4.109798    3.003261
     41          1           0       -4.561939    6.165047    4.349082
     42          1           0        2.208054    8.454090   -1.269777
     43          1           0        0.458987    9.298631    0.294272
     44          1           0       -3.248718    8.045155    3.370858
     45          8           0       -2.718364   -0.634323   -3.559373
     46          8           0       -1.943938   -1.622161    0.387269
     47          8           0        1.197900   -0.553927   -2.221240
     48          1           0       -4.394114    0.375037   -1.592875
 ---------------------------------------------------------------------
                    Distance matrix (angstroms):
                    1          2          3          4          5
     1  Mn   0.000000
     2  C    1.789275   0.000000
     3  C    1.772296   2.530934   0.000000
     4  C    1.789415   2.561289   2.532495   0.000000
     5  Br   2.541620   3.010280   4.310736   3.013347   0.000000
     6  N    2.189268   3.976357   2.876426   2.847271   3.378267
     7  N    2.188894   2.843406   2.875173   3.976196   3.373982
     8  C    3.108710   4.840465   3.069182   3.400222   4.660265
     9  C    4.436909   6.197964   4.414347   4.662315   5.665039
    10  C    4.988347   6.773834   5.352835   5.359377   5.652016
    11  C    4.447399   6.162442   5.233771   5.014802   4.608847
    12  C    3.102526   4.780196   4.116663   3.816738   3.326640
    13  C    3.101817   3.816148   4.114178   4.779872   3.324007
    14  C    4.446844   5.011038   5.232060   6.162412   4.603995
    15  C    3.108334   3.389650   3.069888   4.840116   4.652814
    16  C    4.436465   4.650860   4.415171   6.197704   5.656115
    17  C    4.987517   5.350574   5.352202   6.773438   5.643864
    18  C    5.555347   6.181927   6.542775   7.150144   5.138223
    19  C    5.555451   7.149470   6.544272   6.184266   5.141375
    20  C    5.945111   7.383619   6.973232   6.891350   5.414197
    21  C    5.945056   6.889362   6.972453   7.384775   5.412576
    22  C    7.180828   8.516668   8.311788   8.093498   6.305815
    23  C    7.181173   8.091773   8.311483   8.518425   6.304854
    24  C    6.565733   6.902827   7.610187   8.149689   5.879593
    25  C    6.565826   8.149279   7.611999   6.905248   5.883614
    26  C    7.695919   9.181865   8.846855   8.099204   6.708905
    27  C    7.695980   8.096913   8.845431   9.182609   6.705516
    28  C    7.957780   8.619668   9.151536   9.337527   6.879726
    29  C    7.957447   9.336147   9.152183   8.621510   6.881735
    30  S    5.409517   6.721967   6.211855   6.723556   5.376911
    31  S    8.141654   9.286588   9.242085   9.288325   7.250695
    32  H    5.248053   6.951092   4.925963   5.325477   6.664436
    33  H    6.078762   7.863672   6.388979   6.407358   6.648996
    34  H    3.085726   4.521620   4.458702   3.910731   2.549920
    35  H    3.084641   3.914731   4.455157   4.520849   2.551776
    36  H    3.096093   3.177766   2.507756   4.633032   5.068449
    37  H    5.247948   5.312029   4.928220   6.951101   6.654452
    38  H    6.078022   6.397730   6.388607   7.863452   6.640372
    39  H    6.623986   6.689264   7.591815   8.248239   6.049820
    40  H    6.624184   8.248288   7.594105   6.691924   6.054836
    41  H    8.530018  10.006937   9.697602   8.768137   7.440068
    42  H    8.529914   8.765612   9.695869  10.007304   7.435999
    43  H    8.940864   9.607802  10.183140  10.251378   7.706952
    44  H    8.940987  10.250503  10.184026   9.609988   7.709337
    45  O    2.941234   3.434312   1.170014   3.436468   5.476034
    46  O    2.948462   3.485697   3.446412   1.159158   3.781374
    47  O    2.948331   1.159155   3.445122   3.487041   3.776679
    48  H    3.097372   4.634603   2.506436   3.191180   5.076806
                    6          7          8          9         10
     6  N    0.000000
     7  N    3.012087   0.000000
     8  C    1.352553   3.975308   0.000000
     9  C    2.402816   5.040953   1.389149   0.000000
    10  C    2.800098   5.296492   2.404658   1.396569   0.000000
    11  C    2.415549   4.576668   2.748489   2.403010   1.396583
    12  C    1.341668   3.399640   2.309100   2.726608   2.398897
    13  C    3.394867   1.341564   4.506776   5.337214   5.236605
    14  C    4.575678   2.415282   5.551058   6.201917   5.966341
    15  C    3.981394   1.352624   4.647215   5.681642   6.084703
    16  C    5.048030   2.402636   5.682089   6.531637   6.772242
    17  C    5.300398   2.799441   6.081025   6.767192   6.717878
    18  C    5.400599   3.743920   6.420141   6.866248   6.336411
    19  C    3.743946   5.402108   4.229405   3.789303   2.530457
    20  C    4.415815   5.272542   5.063180   4.766347   3.593263
    21  C    5.271128   4.416439   6.196407   6.375693   5.600728
    22  C    5.757905   6.438941   6.437095   6.081274   4.824461
    23  C    6.438457   5.758483   7.363161   7.412108   6.462063
    24  C    6.672044   4.740702   7.752257   8.248258   7.703826
    25  C    4.741289   6.673394   5.114768   4.510250   3.203283
    26  C    6.004493   7.621700   6.470694   5.876089   4.535779
    27  C    7.620846   6.004081   8.705471   9.065821   8.344442
    28  C    7.514411   6.430070   8.532385   8.696819   7.799175
    29  C    6.429829   7.514893   7.036576   6.550595   5.210121
    30  S    4.180373   4.182047   4.843240   4.791680   3.969691
    31  S    6.979842   6.980579   7.725986   7.465858   6.292377
    32  H    3.375186   5.906686   2.145969   1.089454   2.170888
    33  H    3.890914   6.294203   3.401906   2.170848   1.090911
    34  H    2.065563   3.215185   3.276644   3.813489   3.394943
    35  H    3.203954   2.065320   4.469652   5.247033   4.989304
    36  H    4.204716   2.079496   4.664295   5.795659   6.428701
    37  H    5.916300   3.375221   6.400839   7.231369   7.570705
    38  H    6.299177   3.890284   7.026467   7.604956   7.474697
    39  H    7.057079   4.737304   8.153711   8.789111   8.386608
    40  H    4.738371   7.058513   4.935802   4.249150   3.067367
    41  H    6.836406   8.609387   7.240733   6.585251   5.272170
    42  H    8.608485   6.835649   9.725128  10.129134   9.421489
    43  H    8.431149   7.489720   9.438527   9.525050   8.537811
    44  H    7.489772   8.431997   8.124234   7.634655   6.285389
    45  O    3.770166   3.768334   3.596911   4.813187   5.920862
    46  O    3.698585   5.135120   4.021785   5.143284   5.886002
    47  O    5.135199   3.692206   5.977409   7.343658   7.931800
    48  H    2.079938   4.197901   1.088461   2.162755   3.401238
                   11         12         13         14         15
    11  C    0.000000
    12  C    1.401178   0.000000
    13  C    4.261649   3.234108   0.000000
    14  C    5.015502   4.266876   1.401166   0.000000
    15  C    5.559842   4.518139   2.309474   2.748775   0.000000
    16  C    6.213339   5.350930   2.726932   2.403371   1.389104
    17  C    5.974177   5.247777   2.398746   1.396632   2.404427
    18  C    5.237530   4.740600   2.485978   1.483333   4.229762
    19  C    1.483344   2.485831   4.736650   5.239029   6.429020
    20  C    2.514944   3.154038   4.339180   4.487723   6.204554
    21  C    4.486015   4.342732   3.152395   2.516156   5.067100
    22  C    3.800694   4.456077   5.361344   5.317082   7.369379
    23  C    5.316508   5.364996   4.454983   3.801330   6.440205
    24  C    6.555108   6.019919   3.542579   2.502573   5.111772
    25  C    2.503667   3.540984   6.016280   6.556495   7.760640
    26  C    3.787995   4.732087   6.784583   7.144177   8.712642
    27  C    7.143330   6.788191   4.733366   3.787382   6.468404
    28  C    6.605367   6.501584   5.099882   4.295310   7.037161
    29  C    4.295047   5.099572   6.498088   6.605963   8.538556
    30  S    3.050875   3.241424   3.237765   3.053253   4.852244
    31  S    5.284717   5.758436   5.756103   5.285738   7.731407
    32  H    3.402499   3.815156   6.304319   7.119729   6.396934
    33  H    2.162061   3.396129   6.146024   6.739604   7.029084
    34  H    2.169036   1.089911   2.774241   3.848549   4.485347
    35  H    3.833608   2.763935   1.089664   2.168872   3.276695
    36  H    6.079961   5.011070   3.278351   3.836573   1.088404
    37  H    7.134759   6.320479   3.815484   3.402707   2.146147
    38  H    6.749556   6.158692   3.396029   2.162104   3.401570
    39  H    7.268473   6.576911   3.722797   2.696078   4.929891
    40  H    2.697920   3.720170   6.573286   7.269837   8.162374
    41  H    4.659596   5.610309   7.801275   8.204252   9.732193
    42  H    8.203411   7.804667   5.612075   4.658672   7.236797
    43  H    7.345563   7.347238   6.153245   5.384893   8.124676
    44  H    5.384714   6.153257   7.344653   7.346596   9.444481
    45  O    6.024802   5.051730   5.048402   6.022210   3.597353
    46  O    5.666054   4.608735   5.906072   7.296330   5.976714
    47  O    7.295744   5.905829   4.606292   5.658588   4.005560
    48  H    3.836388   3.278471   5.000100   6.070369   4.661907
                   16         17         18         19         20
    16  C    0.000000
    17  C    1.396531   0.000000
    18  C    3.789554   2.530485   0.000000
    19  C    6.878344   6.345743   5.032254   0.000000
    20  C    6.387172   5.610114   3.980260   1.411268   0.000000
    21  C    4.772199   3.598789   1.411397   3.980134   2.752268
    22  C    7.421233   6.469388   4.451028   2.439076   1.404610
    23  C    6.085670   4.828310   2.438861   4.451860   3.091951
    24  C    4.504882   3.197597   1.401657   6.228922   5.100989
    25  C    8.259776   7.712637   6.229047   1.401697   2.423600
    26  C    9.075927   8.352175   6.535859   2.431020   2.799359
    27  C    5.871992   4.531846   2.431277   6.536195   5.288871
    28  C    6.551018   5.210451   2.812922   5.760644   4.441846
    29  C    8.705792   7.806213   5.760111   2.812580   2.429947
    30  S    4.804832   3.981153   2.753699   2.753578   1.773621
    31  S    7.473915   6.299241   4.080303   4.080554   2.772330
    32  H    7.227240   7.561343   7.827057   4.694032   5.681368
    33  H    7.608809   7.473003   6.966630   2.768755   3.812169
    34  H    5.265800   5.007675   4.175589   2.700840   3.073768
    35  H    3.813503   3.394601   2.700964   4.161796   3.859595
    36  H    2.163286   3.401369   5.316409   7.112818   7.044467
    37  H    1.089440   2.170756   4.694015   7.842618   7.344767
    38  H    2.170547   1.090929   2.768778   6.978561   6.085309
    39  H    4.238696   3.056610   2.151581   7.095586   6.051567
    40  H    8.800865   8.395391   7.095747   2.151662   3.408336
    41  H   10.139043   9.428991   7.577702   3.416842   3.889468
    42  H    6.578589   5.266114   3.417136   7.577948   6.336647
    43  H    7.635109   6.285837   3.902990   6.346945   5.035590
    44  H    9.533582   8.544647   6.347051   3.902705   3.413802
    45  O    4.813893   5.919737   7.394123   7.396574   7.840353
    46  O    7.343199   7.931658   8.232434   6.823270   7.674870
    47  O    5.124375   5.870943   6.817514   8.230705   8.393978
    48  H    5.793195   6.422682   7.103510   5.316159   6.112791
                   21         22         23         24         25
    21  C    0.000000
    22  C    3.091010   0.000000
    23  C    1.404769   2.755581   0.000000
    24  C    2.423616   5.288802   2.793633   0.000000
    25  C    5.101006   2.794368   5.289854   7.319891   0.000000
    26  C    5.288398   2.418982   5.099941   7.448854   1.395268
    27  C    2.799849   5.099418   2.418630   1.395206   7.449348
    28  C    2.430539   3.974555   1.400202   2.418168   6.527668
    29  C    4.441192   1.400343   3.974889   6.526984   2.418287
    30  S    1.773594   2.766240   2.766802   4.050129   4.050104
    31  S    2.772046   1.770224   1.770399   4.560880   4.561398
    32  H    7.330262   6.956916   8.359653   9.219644   5.285757
    33  H    6.073207   4.858812   6.781578   8.319199   3.124592
    34  H    3.872249   4.209580   4.824729   5.333930   3.701370
    35  H    3.068102   4.813786   4.205616   3.705936   5.321387
    36  H    6.116576   8.274247   7.499449   6.182980   8.408724
    37  H    5.688269   8.371553   6.962198   5.278655   9.234759
    38  H    3.819404   6.791627   4.864121   3.116519   8.330730
    39  H    3.408354   6.333819   3.884101   1.090556   8.227479
    40  H    6.051607   3.884836   6.334896   8.227542   1.090557
    41  H    6.336229   3.406247   6.054367   8.437895   2.157944
    42  H    3.889970   6.053817   3.405909   2.158101   8.438278
    43  H    3.414113   4.285124   2.155704   3.410830   6.933537
    44  H    5.035511   2.155994   4.285955   6.933569   3.410726
    45  O    7.839074   9.209829   9.209062   8.465931   8.468971
    46  O    8.396867   8.839125   9.473879   9.223371   7.362689
    47  O    7.669951   9.470102   8.834287   7.356407   9.222222
    48  H    7.036103   7.496336   8.267739   8.399843   6.186037
                   26         27         28         29         30
    26  C    0.000000
    27  C    7.314647   0.000000
    28  C    6.219113   1.394559   0.000000
    29  C    1.394496   6.218979   5.021682   0.000000
    30  S    4.568179   4.568648   4.067233   4.066605   0.000000
    31  S    4.034013   4.033980   2.732796   2.732766   3.224784
    32  H    6.631153  10.049753   9.667440   7.369234   5.684754
    33  H    4.335644   8.843373   8.161945   5.082287   4.385481
    34  H    4.682666   6.055598   5.828292   4.883093   3.207629
    35  H    6.044153   4.686346   4.883296   5.817746   3.195287
    36  H    9.455044   7.546295   8.121482   9.393187   5.759652
    37  H   10.063178   6.625384   7.369304   9.679323   5.700791
    38  H    8.853828   4.329970   5.082711   8.171676   4.399776
    39  H    8.433548   2.161862   3.408004   7.565231   4.901498
    40  H    2.162184   8.434093   7.565965   3.408250   4.901444
    41  H    1.090108   8.227134   7.091958   2.154804   5.657718
    42  H    8.227037   1.090121   2.154768   7.091780   5.658213
    43  H    6.410893   2.165551   1.090418   5.117169   4.921813
    44  H    2.165137   6.411488   5.117787   1.090453   4.921502
    45  O    9.742476   9.739962  10.069544  10.070914   6.988175
    46  O    8.563773  10.206802  10.308774   9.224570   7.683166
    47  O   10.204998   8.557617   9.219236  10.305769   7.679370
    48  H    7.548772   9.447433   9.386697   8.121011   5.750623
                   31         32         33         34         35
    31  S    0.000000
    32  H    8.331085   0.000000
    33  H    6.337807   2.523503   0.000000
    34  H    5.397101   4.901050   4.311575   0.000000
    35  H    5.389505   6.289903   5.897306   2.003734   0.000000
    36  H    8.737650   6.386167   7.395108   5.105287   4.138679
    37  H    8.341419   7.819780   8.370977   6.309855   4.901068
    38  H    6.347384   8.362437   8.137738   5.916922   4.311341
    39  H    5.651341   9.747027   9.077680   5.879937   4.040652
    40  H    5.651859   4.917294   2.936223   4.033189   5.867537
    41  H    4.884579   7.263918   4.969785   5.569846   7.013763
    42  H    4.884596  11.119239   9.926361   7.024530   5.575192
    43  H    2.849395  10.487705   8.813997   6.663696   5.862633
    44  H    2.849658   8.436747   6.103509   5.862932   6.655056
    45  O   10.116378   5.092830   6.884449   5.515264   5.510851
    46  O   10.140672   5.678383   6.866625   4.747477   5.569237
    47  O   10.136290   8.070056   9.021278   5.569133   4.751616
    48  H    8.731982   2.487573   4.317997   4.139253   5.091853
                   36         37         38         39         40
    36  H    0.000000
    37  H    2.488818   0.000000
    38  H    4.318140   2.522894   0.000000
    39  H    5.945250   4.903667   2.920627   0.000000
    40  H    8.698039   9.762621   9.089150   9.085193   0.000000
    41  H   10.446125  11.132518   9.936564   9.423292   2.492076
    42  H    8.293891   7.254610   4.960964   2.491921   9.423719
    43  H    9.207981   8.436928   6.104264   4.315247   7.990633
    44  H   10.337932  10.498895   8.823414   7.990633   4.315217
    45  O    2.775704   5.095551   6.883627   8.404038   8.407850
    46  O    5.701002   8.069632   9.021379   9.339240   6.994229
    47  O    3.710654   5.655725   6.849837   6.987379   9.339052
    48  H    4.424120   6.386735   7.389749   8.688743   5.951194
                   41         42         43         44         45
    41  H    0.000000
    42  H    9.090880   0.000000
    43  H    7.174297   2.493739   0.000000
    44  H    2.493246   7.174892   4.978319   0.000000
    45  O   10.591216  10.588253  11.117991  11.119475   0.000000
    46  O    9.120883  11.023415  11.182415  10.201042   4.141442
    47  O   11.022227   9.114278  10.195425  11.179811   4.139346
    48  H    8.298146  10.438588  10.331720   9.207675   2.773817
                   46         47         48
    46  O    0.000000
    47  O    4.220970   0.000000
    48  H    3.730031   5.703371   0.000000
 Stoichiometry    C25H14BrMnN2O3S2
 Framework group  C1[X(C25H14BrMnN2O3S2)]
 Deg. of freedom   138
 Full point group                 C1      NOp   1
 Largest Abelian subgroup         C1      NOp   1
 Largest concise Abelian subgroup C1      NOp   1
                         Standard orientation:                         
 ---------------------------------------------------------------------
 Center     Atomic      Atomic             Coordinates (Angstroms)
 Number     Number       Type             X           Y           Z
 ---------------------------------------------------------------------
      1         25           0        2.957060   -0.003795    0.160073
      2          6           0        3.975161    1.277507    0.883428
      3          6           0        3.963073   -0.004046   -1.299026
      4          6           0        3.975014   -1.283781    0.886304
      5         35           0        1.681838    0.002256    2.358619
      6          7           0        1.595914   -1.508759   -0.661669
      7          7           0        1.599062    1.503327   -0.661925
      8          6           0        1.986573   -2.322810   -1.668697
      9          6           0        1.136906   -3.262185   -2.239113
     10          6           0       -0.181457   -3.356151   -1.788009
     11          6           0       -0.600690   -2.508825   -0.760036
     12          6           0        0.336015   -1.621081   -0.214331
     13          6           0        0.337309    1.613023   -0.219499
     14          6           0       -0.595679    2.506674   -0.761889
     15          6           0        1.995458    2.324390   -1.661084
     16          6           0        1.149581    3.269429   -2.227655
     17          6           0       -0.170378    3.361714   -1.781010
     18          6           0       -1.978927    2.515849   -0.226335
     19          6           0       -1.982971   -2.516402   -0.221938
     20          6           0       -2.806038   -1.375916   -0.338257
     21          6           0       -2.803851    1.376350   -0.340722
     22          6           0       -4.091192   -1.375556    0.228582
     23          6           0       -4.089212    1.380023    0.226033
     24          6           0       -2.485529    3.660554    0.404258
     25          6           0       -2.491276   -3.659332    0.410590
     26          6           0       -3.768844   -3.654965    0.971458
     27          6           0       -3.762963    3.659678    0.965293
     28          6           0       -4.555361    2.513829    0.902609
     29          6           0       -4.559133   -2.507849    0.906744
     30         16           0       -2.248770   -0.001077   -1.310369
     31         16           0       -5.183492    0.002720    0.026277
     32          1           0        1.506515   -3.903287   -3.038668
     33          1           0       -0.880625   -4.063521   -2.236202
     34          1           0        0.081096   -1.008771    0.650538
     35          1           0        0.078256    0.994932    0.639701
     36          1           0        3.023473    2.212637   -2.000670
     37          1           0        1.523127    3.916454   -3.020562
     38          1           0       -0.866262    4.074198   -2.226249
     39          1           0       -1.849336    4.542740    0.483751
     40          1           0       -1.856534   -4.542447    0.491367
     41          1           0       -4.143287   -4.542406    1.481926
     42          1           0       -4.135773    4.548468    1.474633
     43          1           0       -5.543349    2.492958    1.363540
     44          1           0       -5.547433   -2.485358    1.367009
     45          8           0        4.679407   -0.003776   -2.224119
     46          8           0        4.646747   -2.112234    1.340271
     47          8           0        4.644795    2.108733    1.335417
     48          1           0        3.013546   -2.211458   -2.011734
 ---------------------------------------------------------------------
 Rotational constants (GHZ):           0.1495541           0.0790143           0.0659358
 General basis read from cards:  (5D, 7F)
 There are   655 symmetry adapted cartesian basis functions of A   symmetry.
 There are   612 symmetry adapted basis functions of A   symmetry.
   612 basis functions,  1114 primitive gaussians,   655 cartesian basis functions
   147 alpha electrons      147 beta electrons
       nuclear repulsion energy      5180.2445330432 Hartrees.
 NAtoms=   48 NActive=   48 NUniq=   48 SFac= 1.00D+00 NAtFMM=   60 NAOKFM=F Big=F
 Integral buffers will be    131072 words long.
 Raffenetti 2 integral format.
 Two-electron integral symmetry is turned on.
 Nuclear repulsion after empirical dispersion term =     5180.1955971738 Hartrees.
 ------------------------------------------------------------------------------
 Polarizable Continuum Model (PCM)
 =================================
 Model                : PCM.
 Atomic radii         : UFF (Universal Force Field).
 Polarization charges : Total charges.
 Charge compensation  : None.
 Solution method      : On-the-fly selection.
 Cavity type          : Scaled VdW (van der Waals Surface) (Alpha=1.100).
 Cavity algorithm     : GePol (No added spheres)
                        Default sphere list used, NSphG=   48.
                        Lebedev-Laikov grids with approx.  5.0 points / Ang**2.
                        Smoothing algorithm: York/Karplus (Gamma=1.0000).
                        Polarization charges: spherical gaussians, with
                                              point-specific exponents (IZeta= 3).
                        Self-potential: point-specific (ISelfS= 7).
                        Self-field    : sphere-specific E.n sum rule (ISelfD= 2).
 1st derivatives      : Analytical E(r).r(x)/FMM algorithm (CHGder, D1EAlg=3).
                        Cavity 1st derivative terms included.
 Solvent              : TetraHydroFuran, Eps=   7.425700 Eps(inf)=   1.974025
 ------------------------------------------------------------------------------
 One-electron integrals computed using PRISM.
 PrsmSu:  requested number of processors reduced to:  11 ShMem   1 Linda.
 NBasis=   612 RedAO= T EigKep=  2.31D-04  NBF=   612
 NBsUse=   612 1.00D-06 EigRej= -1.00D+00 NBFU=   612
 ExpMin= 3.93D-02 ExpMax= 2.77D+05 ExpMxC= 1.70D+04 IAcc=3 IRadAn=         5 AccDes= 0.00D+00
 Harris functional with IExCor= 4639 and IRadAn=       5 diagonalized for initial guess.
 HarFok:  IExCor= 4639 AccDes= 0.00D+00 IRadAn=         5 IDoV= 1 UseB2=F ITyADJ=14
 ICtDFT=  3500011 ScaDFX=  1.000000  1.000000  1.000000  1.000000
 FoFCou: FMM=F IPFlag=           0 FMFlag=      100000 FMFlg1=           0
         NFxFlg=           0 DoJE=T BraDBF=F KetDBF=T FulRan=T
         wScrn=  0.000000 ICntrl=       500 IOpCl=  0 I1Cent=   200000004 NGrid=           0
         NMat0=    1 NMatS0=      1 NMatT0=    0 NMatD0=    1 NMtDS0=    0 NMtDT0=    0
 Petite list used in FoFCou.
 Requested convergence on RMS density matrix=1.00D-08 within 128 cycles.
 Requested convergence on MAX density matrix=1.00D-06.
 Requested convergence on             energy=1.00D-06.
 No special actions if energy rises.
 CoulSu:  requested number of processors reduced to:  16 ShMem   1 Linda.
 Inv3:  Mode=1 IEnd=    44884272.
 Iteration    1 A*A^-1 deviation from unit magnitude is 3.33D-15 for   3709.
 Iteration    1 A*A^-1 deviation from orthogonality  is 2.11D-15 for   2069    174.
 Iteration    1 A^-1*A deviation from unit magnitude is 3.89D-15 for   1130.
 Iteration    1 A^-1*A deviation from orthogonality  is 2.22D-15 for   3049    720.
 CoulSu:  requested number of processors reduced to:  16 ShMem   1 Linda.
 CoulSu:  requested number of processors reduced to:  16 ShMem   1 Linda.
 CoulSu:  requested number of processors reduced to:  22 ShMem   1 Linda.
 Error on total polarization charges =  0.01561
 SCF Done:  E(RwB97XD) =  -5816.10161909     A.U. after   19 cycles
            NFock= 19  Conv=0.27D-08     -V/T= 2.0034

 **********************************************************************

            Population analysis using the SCF density.

 **********************************************************************

 Orbital symmetries:
       Occupied  (A) (A) (A) (A) (A) (A) (A) (A) (A) (A) (A) (A)
                 (A) (A) (A) (A) (A) (A) (A) (A) (A) (A) (A) (A)
                 (A) (A) (A) (A) (A) (A) (A) (A) (A) (A) (A) (A)
                 (A) (A) (A) (A) (A) (A) (A) (A) (A) (A) (A) (A)
                 (A) (A) (A) (A) (A) (A) (A) (A) (A) (A) (A) (A)
                 (A) (A) (A) (A) (A) (A) (A) (A) (A) (A) (A) (A)
                 (A) (A) (A) (A) (A) (A) (A) (A) (A) (A) (A) (A)
                 (A) (A) (A) (A) (A) (A) (A) (A) (A) (A) (A) (A)
                 (A) (A) (A) (A) (A) (A) (A) (A) (A) (A) (A) (A)
                 (A) (A) (A) (A) (A) (A) (A) (A) (A) (A) (A) (A)
                 (A) (A) (A) (A) (A) (A) (A) (A) (A) (A) (A) (A)
                 (A) (A) (A) (A) (A) (A) (A) (A) (A) (A) (A) (A)
                 (A) (A) (A)
       Virtual   (A) (A) (A) (A) (A) (A) (A) (A) (A) (A) (A) (A)
                 (A) (A) (A) (A) (A) (A) (A) (A) (A) (A) (A) (A)
                 (A) (A) (A) (A) (A) (A) (A) (A) (A) (A) (A) (A)
                 (A) (A) (A) (A) (A) (A) (A) (A) (A) (A) (A) (A)
                 (A) (A) (A) (A) (A) (A) (A) (A) (A) (A) (A) (A)
                 (A) (A) (A) (A) (A) (A) (A) (A) (A) (A) (A) (A)
                 (A) (A) (A) (A) (A) (A) (A) (A) (A) (A) (A) (A)
                 (A) (A) (A) (A) (A) (A) (A) (A) (A) (A) (A) (A)
                 (A) (A) (A) (A) (A) (A) (A) (A) (A) (A) (A) (A)
                 (A) (A) (A) (A) (A) (A) (A) (A) (A) (A) (A) (A)
                 (A) (A) (A) (A) (A) (A) (A) (A) (A) (A) (A) (A)
                 (A) (A) (A) (A) (A) (A) (A) (A) (A) (A) (A) (A)
                 (A) (A) (A) (A) (A) (A) (A) (A) (A) (A) (A) (A)
                 (A) (A) (A) (A) (A) (A) (A) (A) (A) (A) (A) (A)
                 (A) (A) (A) (A) (A) (A) (A) (A) (A) (A) (A) (A)
                 (A) (A) (A) (A) (A) (A) (A) (A) (A) (A) (A) (A)
                 (A) (A) (A) (A) (A) (A) (A) (A) (A) (A) (A) (A)
                 (A) (A) (A) (A) (A) (A) (A) (A) (A) (A) (A) (A)
                 (A) (A) (A) (A) (A) (A) (A) (A) (A) (A) (A) (A)
                 (A) (A) (A) (A) (A) (A) (A) (A) (A) (A) (A) (A)
                 (A) (A) (A) (A) (A) (A) (A) (A) (A) (A) (A) (A)
                 (A) (A) (A) (A) (A) (A) (A) (A) (A) (A) (A) (A)
                 (A) (A) (A) (A) (A) (A) (A) (A) (A) (A) (A) (A)
                 (A) (A) (A) (A) (A) (A) (A) (A) (A) (A) (A) (A)
                 (A) (A) (A) (A) (A) (A) (A) (A) (A) (A) (A) (A)
                 (A) (A) (A) (A) (A) (A) (A) (A) (A) (A) (A) (A)
                 (A) (A) (A) (A) (A) (A) (A) (A) (A) (A) (A) (A)
                 (A) (A) (A) (A) (A) (A) (A) (A) (A) (A) (A) (A)
                 (A) (A) (A) (A) (A) (A) (A) (A) (A) (A) (A) (A)
                 (A) (A) (A) (A) (A) (A) (A) (A) (A) (A) (A) (A)
                 (A) (A) (A) (A) (A) (A) (A) (A) (A) (A) (A) (A)
                 (A) (A) (A) (A) (A) (A) (A) (A) (A) (A) (A) (A)
                 (A) (A) (A) (A) (A) (A) (A) (A) (A) (A) (A) (A)
                 (A) (A) (A) (A) (A) (A) (A) (A) (A) (A) (A) (A)
                 (A) (A) (A) (A) (A) (A) (A) (A) (A) (A) (A) (A)
                 (A) (A) (A) (A) (A) (A) (A) (A) (A) (A) (A) (A)
                 (A) (A) (A) (A) (A) (A) (A) (A) (A) (A) (A) (A)
                 (A) (A) (A) (A) (A) (A) (A) (A) (A) (A) (A) (A)
                 (A) (A) (A) (A) (A) (A) (A) (A) (A)
 The electronic state is 1-A.
 Alpha  occ. eigenvalues -- -483.00180-235.70269 -89.03982 -89.03711 -62.58185
 Alpha  occ. eigenvalues --  -56.38823 -56.38706 -56.38703 -27.47363 -23.53159
 Alpha  occ. eigenvalues --  -23.52943 -23.52867 -19.33390 -19.33385 -19.33217
 Alpha  occ. eigenvalues --  -14.50021 -14.50017 -10.41599 -10.41591 -10.41372
 Alpha  occ. eigenvalues --  -10.36332 -10.36331 -10.36070 -10.36068 -10.35760
 Alpha  occ. eigenvalues --  -10.35754 -10.35500 -10.35495 -10.34258 -10.34256
 Alpha  occ. eigenvalues --  -10.34153 -10.34152 -10.34098 -10.34094 -10.33098
 Alpha  occ. eigenvalues --  -10.33097 -10.32652 -10.32650 -10.32398 -10.32396
 Alpha  occ. eigenvalues --  -10.32234 -10.32231  -8.74949  -8.09071  -8.08870
 Alpha  occ. eigenvalues --   -6.56903  -6.56491  -6.56474  -6.04535  -6.04332
 Alpha  occ. eigenvalues --   -6.04131  -6.03928  -6.03514  -6.03309  -3.26527
 Alpha  occ. eigenvalues --   -2.67363  -2.67254  -2.67239  -2.66913  -2.66912
 Alpha  occ. eigenvalues --   -2.12082  -2.11623  -2.11570  -1.21579  -1.21496
 Alpha  occ. eigenvalues --   -1.20946  -1.07407  -1.07075  -1.01014  -0.98502
 Alpha  occ. eigenvalues --   -0.94414  -0.93130  -0.92009  -0.91057  -0.89525
 Alpha  occ. eigenvalues --   -0.88096  -0.86316  -0.85133  -0.82710  -0.80239
 Alpha  occ. eigenvalues --   -0.78659  -0.75716  -0.75670  -0.74848  -0.74667
 Alpha  occ. eigenvalues --   -0.72360  -0.70003  -0.69607  -0.67820  -0.66903
 Alpha  occ. eigenvalues --   -0.64677  -0.64531  -0.64195  -0.63947  -0.62302
 Alpha  occ. eigenvalues --   -0.61111  -0.60552  -0.59842  -0.57940  -0.57715
 Alpha  occ. eigenvalues --   -0.57342  -0.57121  -0.56776  -0.55474  -0.55400
 Alpha  occ. eigenvalues --   -0.55271  -0.54636  -0.54496  -0.53972  -0.53885
 Alpha  occ. eigenvalues --   -0.53273  -0.52614  -0.52456  -0.52403  -0.51957
 Alpha  occ. eigenvalues --   -0.51824  -0.51489  -0.51347  -0.50720  -0.50241
 Alpha  occ. eigenvalues --   -0.49529  -0.48956  -0.48238  -0.48053  -0.47436
 Alpha  occ. eigenvalues --   -0.45188  -0.44682  -0.44217  -0.43660  -0.41764
 Alpha  occ. eigenvalues --   -0.40760  -0.40132  -0.39891  -0.39598  -0.38700
 Alpha  occ. eigenvalues --   -0.37147  -0.36766  -0.36688  -0.35491  -0.34926
 Alpha  occ. eigenvalues --   -0.34746  -0.34059  -0.32259  -0.31199  -0.30914
 Alpha  occ. eigenvalues --   -0.30792  -0.29624
 Alpha virt. eigenvalues --    0.00377   0.00516   0.00813   0.01873   0.02809
 Alpha virt. eigenvalues --    0.03513   0.03705   0.03958   0.04491   0.05142
 Alpha virt. eigenvalues --    0.05198   0.07436   0.07620   0.09120   0.09474
 Alpha virt. eigenvalues --    0.09501   0.10751   0.10970   0.11478   0.12736
 Alpha virt. eigenvalues --    0.13138   0.13356   0.14118   0.15485   0.15554
 Alpha virt. eigenvalues --    0.16375   0.16605   0.17031   0.18148   0.18869
 Alpha virt. eigenvalues --    0.19125   0.19193   0.19739   0.20094   0.20780
 Alpha virt. eigenvalues --    0.21134   0.21296   0.21868   0.22987   0.23241
 Alpha virt. eigenvalues --    0.23709   0.23722   0.24709   0.25393   0.27230
 Alpha virt. eigenvalues --    0.27286   0.28502   0.29387   0.30575   0.31096
 Alpha virt. eigenvalues --    0.31640   0.32281   0.32565   0.32908   0.33355
 Alpha virt. eigenvalues --    0.33376   0.34429   0.34701   0.34965   0.35676
 Alpha virt. eigenvalues --    0.35704   0.36642   0.36962   0.37677   0.37703
 Alpha virt. eigenvalues --    0.38388   0.38459   0.38890   0.39354   0.39730
 Alpha virt. eigenvalues --    0.40905   0.42136   0.42476   0.42840   0.42935
 Alpha virt. eigenvalues --    0.43566   0.44447   0.45391   0.45682   0.46425
 Alpha virt. eigenvalues --    0.47246   0.47409   0.47999   0.48167   0.48827
 Alpha virt. eigenvalues --    0.48949   0.49574   0.49801   0.50350   0.51017
 Alpha virt. eigenvalues --    0.52242   0.52671   0.53038   0.53061   0.53289
 Alpha virt. eigenvalues --    0.54005   0.54583   0.54665   0.55039   0.56224
 Alpha virt. eigenvalues --    0.56521   0.56967   0.57058   0.57557   0.57886
 Alpha virt. eigenvalues --    0.57952   0.59110   0.59976   0.59990   0.60629
 Alpha virt. eigenvalues --    0.61095   0.61205   0.62601   0.63317   0.63344
 Alpha virt. eigenvalues --    0.64159   0.64502   0.64712   0.64883   0.65473
 Alpha virt. eigenvalues --    0.65707   0.66630   0.66684   0.67525   0.68450
 Alpha virt. eigenvalues --    0.68641   0.69639   0.70007   0.70025   0.70655
 Alpha virt. eigenvalues --    0.71080   0.71681   0.71709   0.72543   0.72720
 Alpha virt. eigenvalues --    0.72798   0.73273   0.73574   0.73629   0.73668
 Alpha virt. eigenvalues --    0.74756   0.74957   0.75557   0.75697   0.75833
 Alpha virt. eigenvalues --    0.76191   0.76389   0.76958   0.77038   0.77712
 Alpha virt. eigenvalues --    0.78188   0.78606   0.78673   0.79225   0.79378
 Alpha virt. eigenvalues --    0.79718   0.80059   0.80711   0.81416   0.82169
 Alpha virt. eigenvalues --    0.82676   0.83255   0.83353   0.83464   0.84299
 Alpha virt. eigenvalues --    0.84754   0.85012   0.85057   0.85888   0.86187
 Alpha virt. eigenvalues --    0.86330   0.86870   0.87097   0.87623   0.87852
 Alpha virt. eigenvalues --    0.88097   0.88497   0.89653   0.90124   0.90435
 Alpha virt. eigenvalues --    0.91405   0.92065   0.92137   0.92824   0.93510
 Alpha virt. eigenvalues --    0.93582   0.95076   0.95758   0.97275   0.97544
 Alpha virt. eigenvalues --    0.97857   0.98326   0.98345   0.98849   0.99555
 Alpha virt. eigenvalues --    1.00674   1.01553   1.02795   1.04654   1.05143
 Alpha virt. eigenvalues --    1.05818   1.06304   1.06982   1.08711   1.08823
 Alpha virt. eigenvalues --    1.09225   1.10854   1.10876   1.12606   1.13006
 Alpha virt. eigenvalues --    1.13647   1.13945   1.15154   1.16093   1.17523
 Alpha virt. eigenvalues --    1.17762   1.19352   1.20657   1.21446   1.21833
 Alpha virt. eigenvalues --    1.22204   1.22755   1.25079   1.25145   1.26184
 Alpha virt. eigenvalues --    1.27456   1.27648   1.27782   1.28583   1.29045
 Alpha virt. eigenvalues --    1.29529   1.29648   1.29816   1.30463   1.30903
 Alpha virt. eigenvalues --    1.31460   1.32199   1.32365   1.33299   1.34556
 Alpha virt. eigenvalues --    1.35166   1.35522   1.35901   1.36418   1.36919
 Alpha virt. eigenvalues --    1.37696   1.39276   1.39663   1.40016   1.40761
 Alpha virt. eigenvalues --    1.42827   1.43939   1.44568   1.47456   1.48369
 Alpha virt. eigenvalues --    1.50167   1.50704   1.53690   1.54879   1.56374
 Alpha virt. eigenvalues --    1.56965   1.58673   1.59147   1.59806   1.62575
 Alpha virt. eigenvalues --    1.63147   1.64722   1.65612   1.65700   1.68520
 Alpha virt. eigenvalues --    1.68703   1.69623   1.70401   1.70864   1.71318
 Alpha virt. eigenvalues --    1.72851   1.73555   1.74175   1.74322   1.75830
 Alpha virt. eigenvalues --    1.76344   1.76647   1.76672   1.77504   1.77797
 Alpha virt. eigenvalues --    1.77933   1.77969   1.78797   1.79237   1.80164
 Alpha virt. eigenvalues --    1.80212   1.81128   1.81245   1.81837   1.82345
 Alpha virt. eigenvalues --    1.82527   1.83675   1.83944   1.84442   1.85145
 Alpha virt. eigenvalues --    1.86207   1.88248   1.88293   1.88614   1.89195
 Alpha virt. eigenvalues --    1.89332   1.90221   1.90952   1.91915   1.92132
 Alpha virt. eigenvalues --    1.92669   1.93495   1.93885   1.94576   1.96308
 Alpha virt. eigenvalues --    1.98377   1.98603   1.98616   1.99746   2.01112
 Alpha virt. eigenvalues --    2.01237   2.01768   2.02352   2.02371   2.03382
 Alpha virt. eigenvalues --    2.03959   2.04303   2.04539   2.06523   2.06722
 Alpha virt. eigenvalues --    2.07293   2.08036   2.09078   2.09800   2.10384
 Alpha virt. eigenvalues --    2.10475   2.11446   2.11898   2.13120   2.14921
 Alpha virt. eigenvalues --    2.16352   2.18205   2.18598   2.18942   2.19755
 Alpha virt. eigenvalues --    2.21064   2.21142   2.23071   2.23633   2.23797
 Alpha virt. eigenvalues --    2.25106   2.26831   2.26871   2.30000   2.30072
 Alpha virt. eigenvalues --    2.31081   2.31209   2.31590   2.32085   2.33180
 Alpha virt. eigenvalues --    2.34116   2.34782   2.35732   2.37353   2.37539
 Alpha virt. eigenvalues --    2.38558   2.39411   2.39517   2.39812   2.40744
 Alpha virt. eigenvalues --    2.42077   2.45798   2.46250   2.47637   2.49056
 Alpha virt. eigenvalues --    2.49824   2.49901   2.53054   2.53272   2.54534
 Alpha virt. eigenvalues --    2.55622   2.58820   2.59821   2.60156   2.62157
 Alpha virt. eigenvalues --    2.65230   2.66858   2.68001   2.68396   2.69407
 Alpha virt. eigenvalues --    2.69462   2.70152   2.70187   2.70250   2.70590
 Alpha virt. eigenvalues --    2.71040   2.71175   2.71748   2.72639   2.76097
 Alpha virt. eigenvalues --    2.76918   2.77720   2.79772   2.80153   2.80916
 Alpha virt. eigenvalues --    2.81204   2.83595   2.84086   2.85422   2.85526
 Alpha virt. eigenvalues --    2.86954   2.87554   2.89344   2.90415   2.91342
 Alpha virt. eigenvalues --    2.92945   2.99353   2.99491   3.01955   3.03497
 Alpha virt. eigenvalues --    3.04246   3.04872   3.05928   3.07343   3.08201
 Alpha virt. eigenvalues --    3.09288   3.15046   3.15811   3.19335   3.19667
 Alpha virt. eigenvalues --    3.19759   3.20459   3.21520   3.23722   3.23940
 Alpha virt. eigenvalues --    3.27321   3.28436   3.32370   3.39194   3.40257
 Alpha virt. eigenvalues --    3.42751   3.45905   3.47501   3.48758   3.53348
 Alpha virt. eigenvalues --    3.56966   3.58073   3.60004   3.60917   3.62940
 Alpha virt. eigenvalues --    3.64967   3.65373   3.68647   3.69308   3.69661
 Alpha virt. eigenvalues --    3.73405   3.76850   3.82035   3.83100   3.83630
 Alpha virt. eigenvalues --    3.93309   3.99135   4.03630   4.11216   4.13637
          Condensed to atoms (all electrons):
               1          2          3          4          5          6
     1  Mn  24.525657   0.292340   0.279971   0.292245   0.189213   0.166510
     2  C    0.292340   4.676912  -0.020455  -0.012687  -0.035967  -0.006557
     3  C    0.279971  -0.020455   4.788636  -0.020152  -0.012842  -0.008891
     4  C    0.292245  -0.012687  -0.020152   4.676221  -0.035619  -0.007422
     5  Br   0.189213  -0.035967  -0.012842  -0.035619  35.521575  -0.003142
     6  N    0.166510  -0.006557  -0.008891  -0.007422  -0.003142   6.371748
     7  N    0.166686  -0.007587  -0.008973  -0.006560  -0.003304  -0.005775
     8  C   -0.000909   0.000163  -0.002932  -0.000717   0.001685   0.421223
     9  C   -0.000546   0.000000   0.000891  -0.000157  -0.000141  -0.024586
    10  C   -0.000950  -0.000000  -0.000002   0.000026  -0.000626  -0.041040
    11  C    0.002504  -0.000014  -0.000118  -0.000139   0.003859  -0.021601
    12  C   -0.013005   0.000192   0.001367   0.000236  -0.029046   0.458374
    13  C   -0.013087   0.000232   0.001384   0.000195  -0.028817  -0.000283
    14  C    0.002549  -0.000138  -0.000121  -0.000014   0.003799  -0.000139
    15  C   -0.000995  -0.000715  -0.002881   0.000167   0.001678  -0.000016
    16  C   -0.000500  -0.000155   0.000880   0.000000  -0.000139  -0.000104
    17  C   -0.000981   0.000026  -0.000001  -0.000000  -0.000628   0.000026
    18  C   -0.000413  -0.000001   0.000000   0.000000   0.001930   0.000020
    19  C   -0.000418   0.000000   0.000000  -0.000001   0.001936   0.004605
    20  C   -0.000023  -0.000000  -0.000000  -0.000000   0.000112   0.000111
    21  C   -0.000022  -0.000000  -0.000000  -0.000000   0.000115  -0.000006
    22  C    0.000035   0.000000   0.000000  -0.000000   0.000102   0.000001
    23  C    0.000035  -0.000000   0.000000   0.000000   0.000101  -0.000000
    24  C   -0.000015  -0.000000   0.000000  -0.000000   0.000133  -0.000000
    25  C   -0.000015  -0.000000   0.000000  -0.000000   0.000130  -0.000040
    26  C   -0.000003   0.000000  -0.000000   0.000000   0.000076   0.000001
    27  C   -0.000003   0.000000  -0.000000   0.000000   0.000077   0.000000
    28  C    0.000002   0.000000  -0.000000   0.000000  -0.000005  -0.000000
    29  C    0.000002   0.000000  -0.000000   0.000000  -0.000004   0.000000
    30  S    0.001511  -0.000001   0.000000  -0.000001  -0.001356  -0.001505
    31  S    0.000001   0.000000  -0.000000   0.000000   0.000026   0.000000
    32  H    0.000719   0.000000  -0.000021   0.000003   0.000008   0.004611
    33  H   -0.000013   0.000000   0.000000   0.000000   0.000044  -0.000221
    34  H   -0.004531   0.000504   0.000136   0.000135   0.008150  -0.034204
    35  H   -0.004592   0.000144   0.000138   0.000504   0.008061  -0.001373
    36  H   -0.002878   0.000423   0.003461   0.000156   0.000145  -0.000001
    37  H    0.000717   0.000003  -0.000021   0.000000   0.000009   0.000000
    38  H   -0.000014   0.000000   0.000000   0.000000   0.000043   0.000000
    39  H    0.000008   0.000000  -0.000000  -0.000000   0.000060  -0.000000
    40  H    0.000008  -0.000000  -0.000000   0.000000   0.000059  -0.000019
    41  H   -0.000000  -0.000000  -0.000000  -0.000000   0.000002  -0.000000
    42  H   -0.000000  -0.000000  -0.000000  -0.000000   0.000002   0.000000
    43  H    0.000000  -0.000000  -0.000000  -0.000000  -0.000002  -0.000000
    44  H    0.000000  -0.000000  -0.000000  -0.000000  -0.000002  -0.000000
    45  O   -0.001693  -0.001191   0.674430  -0.001160  -0.000400  -0.000181
    46  O   -0.008791  -0.000637  -0.000979   0.704651   0.005735  -0.000507
    47  O   -0.008728   0.704633  -0.000984  -0.000626   0.005800   0.000001
    48  H   -0.002790   0.000157   0.003401   0.000411   0.000167  -0.039745
               7          8          9         10         11         12
     1  Mn   0.166686  -0.000909  -0.000546  -0.000950   0.002504  -0.013005
     2  C   -0.007587   0.000163   0.000000  -0.000000  -0.000014   0.000192
     3  C   -0.008973  -0.002932   0.000891  -0.000002  -0.000118   0.001367
     4  C   -0.006560  -0.000717  -0.000157   0.000026  -0.000139   0.000236
     5  Br  -0.003304   0.001685  -0.000141  -0.000626   0.003859  -0.029046
     6  N   -0.005775   0.421223  -0.024586  -0.041040  -0.021601   0.458374
     7  N    6.372273  -0.000001  -0.000108   0.000027  -0.000140  -0.000321
     8  C   -0.000001   4.759277   0.447619   0.005048  -0.076928  -0.049700
     9  C   -0.000108   0.447619   4.911264   0.398694   0.027911  -0.067367
    10  C    0.000027   0.005048   0.398694   4.847097   0.400557  -0.009937
    11  C   -0.000140  -0.076928   0.027911   0.400557   5.269304   0.441747
    12  C   -0.000321  -0.049700  -0.067367  -0.009937   0.441747   4.740551
    13  C    0.458493   0.000300  -0.000024  -0.000002  -0.000988   0.008003
    14  C   -0.021573  -0.000022  -0.000000  -0.000001  -0.000018  -0.000957
    15  C    0.420952   0.000366  -0.000029   0.000005  -0.000022   0.000291
    16  C   -0.024537  -0.000029  -0.000002   0.000000  -0.000000  -0.000022
    17  C   -0.041122   0.000006   0.000000  -0.000000  -0.000001  -0.000001
    18  C    0.004625  -0.000002   0.000000  -0.000002  -0.000053   0.000238
    19  C    0.000019   0.000532   0.011243  -0.072446   0.314251  -0.069834
    20  C   -0.000005   0.000090  -0.000209   0.002793  -0.086654  -0.012859
    21  C    0.000106  -0.000001   0.000004  -0.000077   0.000558  -0.000545
    22  C   -0.000000  -0.000000  -0.000002  -0.000127   0.016052   0.000246
    23  C    0.000001   0.000000  -0.000000   0.000002   0.000034  -0.000033
    24  C   -0.000040  -0.000000  -0.000000   0.000000   0.000000   0.000003
    25  C   -0.000000   0.000028   0.000375  -0.006321  -0.077605  -0.000475
    26  C    0.000000  -0.000000   0.000013   0.000186   0.012245  -0.000094
    27  C    0.000001  -0.000000   0.000000  -0.000000   0.000000  -0.000000
    28  C    0.000000  -0.000000  -0.000000   0.000000  -0.000001   0.000001
    29  C   -0.000000   0.000000   0.000000   0.000017  -0.000864   0.000072
    30  S   -0.001497   0.000378  -0.000444   0.003991  -0.009589  -0.001095
    31  S    0.000000  -0.000000   0.000000  -0.000001  -0.000220   0.000004
    32  H    0.000000  -0.041262   0.433212  -0.051337   0.010778  -0.000212
    33  H    0.000000   0.009350  -0.049255   0.442459  -0.053795   0.010303
    34  H   -0.001274   0.005254   0.000264   0.007117  -0.054609   0.422485
    35  H   -0.034305  -0.000024   0.000007  -0.000037  -0.000015  -0.000603
    36  H   -0.039867   0.000081   0.000001  -0.000000   0.000000   0.000018
    37  H    0.004608  -0.000000   0.000000  -0.000000   0.000000  -0.000000
    38  H   -0.000220   0.000000  -0.000000   0.000000   0.000000  -0.000000
    39  H   -0.000019  -0.000000  -0.000000   0.000000  -0.000000   0.000000
    40  H   -0.000000  -0.000016  -0.000112   0.001916  -0.015905  -0.000135
    41  H    0.000000   0.000000  -0.000000  -0.000006  -0.000321  -0.000003
    42  H   -0.000000  -0.000000   0.000000  -0.000000  -0.000000  -0.000000
    43  H    0.000000   0.000000  -0.000000   0.000000   0.000000  -0.000000
    44  H   -0.000000   0.000000   0.000000  -0.000000   0.000033  -0.000000
    45  O   -0.000184  -0.002106  -0.000026  -0.000000   0.000000   0.000002
    46  O    0.000001   0.000076  -0.000022   0.000000   0.000001  -0.000001
[...]
    20  C    0.070702  -0.145060   0.000039  -0.000345   0.063071   0.265528
    21  C   -0.000121   0.000039  -0.145049   0.063052  -0.000345   0.265516
    22  C   -0.138559   0.094755  -0.000223   0.004229   0.338140  -0.070801
    23  C    0.000040  -0.000223   0.094747   0.338162   0.004229  -0.070802
    24  C    0.000000   0.000000   0.306968   0.071996   0.000001   0.001545
    25  C    5.012475   0.306928   0.000000   0.000001   0.072014   0.001547
    26  C    0.306928   5.017462   0.000000  -0.000010   0.309639   0.000942
    27  C    0.000000   0.000000   5.017393   0.309654  -0.000010   0.000943
    28  C    0.000001  -0.000010   0.309654   5.005546   0.000131   0.000277
    29  C    0.072014   0.309639  -0.000010   0.000131   5.005563   0.000278
    30  S    0.001547   0.000942   0.000943   0.000277   0.000278  15.617606
    31  S    0.001081   0.002056   0.002056  -0.057221  -0.057217   0.023971
    32  H   -0.000010  -0.000000  -0.000000   0.000000  -0.000000  -0.000006
    33  H    0.001748  -0.000094   0.000000  -0.000000  -0.000019   0.000064
    34  H   -0.000020  -0.000044  -0.000003   0.000001  -0.000010   0.003083
    35  H    0.000008  -0.000003  -0.000044  -0.000010   0.000001   0.003095
    36  H   -0.000000   0.000000   0.000000  -0.000000   0.000000  -0.000002
    37  H    0.000000  -0.000000  -0.000000  -0.000000   0.000000  -0.000006
    38  H   -0.000000   0.000000  -0.000093  -0.000019  -0.000000   0.000063
    39  H   -0.000000   0.000000  -0.061617   0.013056  -0.000000  -0.000107
    40  H    0.456235  -0.061629   0.000000  -0.000000   0.013056  -0.000106
    41  H   -0.064240   0.453560  -0.000000   0.000000  -0.065805   0.000014
    42  H    0.000000  -0.000000   0.453560  -0.065805   0.000000   0.000014
    43  H   -0.000000   0.000001  -0.052904   0.444053  -0.000028  -0.000151
    44  H    0.011755  -0.052903   0.000001  -0.000028   0.444052  -0.000151
    45  O    0.000000  -0.000000  -0.000000   0.000000   0.000000   0.000000
    46  O   -0.000000   0.000000  -0.000000  -0.000000   0.000000   0.000000
    47  O   -0.000000  -0.000000   0.000000   0.000000  -0.000000   0.000000
    48  H   -0.000001   0.000000   0.000000   0.000000  -0.000000  -0.000002
              31         32         33         34         35         36
     1  Mn   0.000000   0.000771  -0.000016  -0.004158  -0.004164  -0.003196
     2  C    0.000000   0.000000   0.000000   0.000454   0.000095   0.000459
     3  C   -0.000000  -0.000021   0.000000   0.000097   0.000097   0.003207
     4  C    0.000000   0.000003   0.000000   0.000094   0.000454   0.000147
     5  Br   0.000018   0.000003   0.000037   0.007041   0.007014   0.000121
     6  N    0.000000   0.004628  -0.000222  -0.034050  -0.001416   0.000011
     7  N    0.000000   0.000000   0.000000  -0.001404  -0.034062  -0.039547
     8  C   -0.000000  -0.040956   0.009612   0.005343  -0.000029   0.000088
     9  C    0.000000   0.433324  -0.049851   0.000345   0.000003   0.000002
    10  C   -0.000001  -0.051703   0.442803   0.007518  -0.000037  -0.000000
    11  C   -0.000218   0.010851  -0.054660  -0.054284  -0.000013   0.000000
    12  C    0.000003  -0.000227   0.010385   0.422912  -0.000368   0.000020
    13  C    0.000003  -0.000000  -0.000000  -0.000461   0.422910   0.004556
    14  C   -0.000218   0.000000   0.000000  -0.000001  -0.054288   0.000804
    15  C   -0.000000  -0.000000   0.000000  -0.000030   0.005349   0.409242
    16  C    0.000000   0.000000  -0.000000   0.000003   0.000344  -0.051468
    17  C   -0.000001  -0.000000   0.000000  -0.000037   0.007524   0.007305
    18  C    0.001504   0.000000  -0.000000   0.000014  -0.010131   0.000052
    19  C    0.001504  -0.000272  -0.011566  -0.010107   0.000015   0.000000
    20  C   -0.062827  -0.000001  -0.000078   0.001861  -0.000007  -0.000000
    21  C   -0.062824  -0.000000   0.000001  -0.000006   0.001869  -0.000000
    22  C    0.242013  -0.000000  -0.000025  -0.000199   0.000021  -0.000000
    23  C    0.242019  -0.000000   0.000000   0.000021  -0.000199   0.000000
    24  C    0.001082   0.000000  -0.000000   0.000008  -0.000022  -0.000001
    25  C    0.001081  -0.000010   0.001748  -0.000020   0.000008  -0.000000
    26  C    0.002056  -0.000000  -0.000094  -0.000044  -0.000003   0.000000
    27  C    0.002056  -0.000000   0.000000  -0.000003  -0.000044   0.000000
    28  C   -0.057221   0.000000  -0.000000   0.000001  -0.000010  -0.000000
    29  C   -0.057217  -0.000000  -0.000019  -0.000010   0.000001   0.000000
    30  S    0.023971  -0.000006   0.000064   0.003083   0.003095  -0.000002
    31  S   15.638708   0.000000   0.000001  -0.000006  -0.000006  -0.000000
    32  H    0.000000   0.600830  -0.008729   0.000041  -0.000000  -0.000000
    33  H    0.000001  -0.008729   0.607149  -0.000221  -0.000000  -0.000000
    34  H   -0.000006   0.000041  -0.000221   0.592059  -0.002510   0.000006
    35  H   -0.000006  -0.000000  -0.000000  -0.002510   0.592236  -0.000161
    36  H   -0.000000  -0.000000  -0.000000   0.000006  -0.000161   0.594574
    37  H    0.000000   0.000000  -0.000000  -0.000000   0.000041  -0.008511
    38  H    0.000001  -0.000000  -0.000000  -0.000000  -0.000221  -0.000231
    39  H    0.000012   0.000000  -0.000000  -0.000001   0.000019  -0.000001
    40  H    0.000012   0.000001   0.000361   0.000019  -0.000001  -0.000000
    41  H   -0.000136   0.000000   0.000002  -0.000001   0.000000  -0.000000
    42  H   -0.000136   0.000000   0.000000   0.000000  -0.000001  -0.000000
    43  H   -0.000452  -0.000000  -0.000000   0.000000  -0.000001  -0.000000
    44  H   -0.000452  -0.000000  -0.000000  -0.000001   0.000000   0.000000
    45  O   -0.000000  -0.000002  -0.000000   0.000000   0.000000   0.006750
    46  O   -0.000000   0.000000  -0.000000   0.000002  -0.000002  -0.000001
    47  O   -0.000000  -0.000000   0.000000  -0.000002   0.000002   0.000144
    48  H   -0.000000  -0.008512  -0.000231  -0.000162   0.000006  -0.000033
              37         38         39         40         41         42
     1  Mn   0.000771  -0.000016   0.000010   0.000010  -0.000000  -0.000000
     2  C    0.000003   0.000000   0.000000  -0.000000  -0.000000  -0.000000
     3  C   -0.000021   0.000000  -0.000000  -0.000000  -0.000000  -0.000000
     4  C    0.000000   0.000000  -0.000000   0.000000  -0.000000  -0.000000
     5  Br   0.000003   0.000037   0.000058   0.000058   0.000003   0.000003
     6  N    0.000000   0.000000  -0.000000  -0.000023  -0.000000   0.000000
     7  N    0.004628  -0.000222  -0.000023  -0.000000   0.000000  -0.000000
     8  C   -0.000000   0.000000  -0.000000  -0.000016   0.000000  -0.000000
     9  C    0.000000  -0.000000  -0.000000  -0.000128  -0.000000   0.000000
    10  C   -0.000000   0.000000   0.000000   0.001509  -0.000007  -0.000000
    11  C    0.000000   0.000000  -0.000000  -0.015155  -0.000319  -0.000000
    12  C   -0.000000  -0.000000   0.000000  -0.000238  -0.000003  -0.000000
    13  C   -0.000227   0.010386  -0.000238   0.000000  -0.000000  -0.000003
    14  C    0.010851  -0.054661  -0.015172  -0.000000  -0.000000  -0.000319
    15  C   -0.040955   0.009612  -0.000016  -0.000000  -0.000000   0.000000
    16  C    0.433324  -0.049845  -0.000128  -0.000000   0.000000  -0.000000
    17  C   -0.051704   0.442799   0.001517   0.000000  -0.000000  -0.000007
    18  C   -0.000272  -0.011576  -0.065355   0.000000   0.000000   0.013517
    19  C    0.000000  -0.000000   0.000000  -0.065359   0.013518   0.000000
    20  C   -0.000000   0.000001   0.000002   0.015831  -0.001537   0.000000
    21  C   -0.000001  -0.000078   0.015831   0.000002   0.000000  -0.001536
    22  C   -0.000000   0.000000   0.000000  -0.002037   0.013759   0.000002
    23  C   -0.000000  -0.000025  -0.002037   0.000000   0.000002   0.013758
    24  C   -0.000010   0.001752   0.456227  -0.000000   0.000000  -0.064238
    25  C    0.000000  -0.000000  -0.000000   0.456235  -0.064240   0.000000
    26  C   -0.000000   0.000000   0.000000  -0.061629   0.453560  -0.000000
    27  C   -0.000000  -0.000093  -0.061617   0.000000  -0.000000   0.453560
    28  C   -0.000000  -0.000019   0.013056  -0.000000   0.000000  -0.065805
    29  C    0.000000  -0.000000  -0.000000   0.013056  -0.065805   0.000000
    30  S   -0.000006   0.000063  -0.000107  -0.000106   0.000014   0.000014
    31  S    0.000000   0.000001   0.000012   0.000012  -0.000136  -0.000136
    32  H    0.000000  -0.000000   0.000000   0.000001   0.000000   0.000000
    33  H   -0.000000  -0.000000  -0.000000   0.000361   0.000002   0.000000
    34  H   -0.000000  -0.000000  -0.000001   0.000019  -0.000001   0.000000
    35  H    0.000041  -0.000221   0.000019  -0.000001   0.000000  -0.000001
    36  H   -0.008511  -0.000231  -0.000001  -0.000000  -0.000000  -0.000000
    37  H    0.600833  -0.008729   0.000001   0.000000   0.000000   0.000000
    38  H   -0.008729   0.607151   0.000362  -0.000000   0.000000   0.000002
    39  H    0.000001   0.000362   0.629430  -0.000000   0.000000  -0.010225
    40  H    0.000000  -0.000000  -0.000000   0.629433  -0.010224   0.000000
    41  H    0.000000   0.000000   0.000000  -0.010224   0.621543  -0.000000
    42  H    0.000000   0.000002  -0.010225   0.000000  -0.000000   0.621543
    43  H   -0.000000  -0.000000  -0.000189  -0.000000  -0.000000  -0.010524
    44  H   -0.000000  -0.000000  -0.000000  -0.000189  -0.010524  -0.000000
    45  O   -0.000002  -0.000000   0.000000   0.000000  -0.000000  -0.000000
    46  O   -0.000000   0.000000  -0.000000  -0.000000   0.000000   0.000000
    47  O    0.000000  -0.000000  -0.000000  -0.000000   0.000000   0.000000
    48  H   -0.000000  -0.000000  -0.000000  -0.000001  -0.000000  -0.000000
              43         44         45         46         47         48
     1  Mn   0.000000   0.000000  -0.003261  -0.011436  -0.011428  -0.003197
     2  C   -0.000000  -0.000000  -0.001295  -0.000419   0.716970   0.000147
     3  C   -0.000000  -0.000000   0.689994  -0.000751  -0.000752   0.003203
     4  C   -0.000000  -0.000000  -0.001294   0.716977  -0.000420   0.000459
     5  Br  -0.000001  -0.000001  -0.000345   0.006106   0.006103   0.000122
     6  N   -0.000000   0.000000  -0.000159  -0.000582   0.000001  -0.039537
     7  N    0.000000  -0.000000  -0.000160   0.000001  -0.000582   0.000011
     8  C    0.000000   0.000000  -0.002071   0.000112   0.000000   0.409228
     9  C   -0.000000   0.000000  -0.000028  -0.000023  -0.000000  -0.051477
    10  C    0.000000  -0.000000  -0.000000   0.000000   0.000000   0.007305
    11  C    0.000000   0.000033   0.000000   0.000001   0.000000   0.000804
    12  C    0.000000  -0.000000   0.000002  -0.000005   0.000001   0.004554
    13  C   -0.000000   0.000000   0.000002   0.000001  -0.000005   0.000020
    14  C    0.000033   0.000000   0.000000   0.000000   0.000001   0.000000
    15  C    0.000000   0.000000  -0.002067   0.000000   0.000113   0.000088
    16  C    0.000000  -0.000000  -0.000028  -0.000000  -0.000023   0.000002
    17  C   -0.000000   0.000000  -0.000000   0.000000   0.000000  -0.000000
    18  C   -0.001294  -0.000000   0.000000  -0.000000   0.000000   0.000000
    19  C   -0.000000  -0.001294   0.000000   0.000000  -0.000000   0.000052
    20  C    0.000012   0.014055  -0.000000   0.000000  -0.000000  -0.000000
    21  C    0.014055   0.000012  -0.000000  -0.000000   0.000000  -0.000000
    22  C    0.000076  -0.066288  -0.000000  -0.000000   0.000000   0.000000
    23  C   -0.066289   0.000076  -0.000000   0.000000  -0.000000  -0.000000
    24  C    0.011756  -0.000000   0.000000  -0.000000  -0.000000  -0.000000
    25  C   -0.000000   0.011755   0.000000  -0.000000  -0.000000  -0.000001
    26  C    0.000001  -0.052903  -0.000000   0.000000  -0.000000   0.000000
    27  C   -0.052904   0.000001  -0.000000  -0.000000   0.000000   0.000000
    28  C    0.444053  -0.000028   0.000000  -0.000000   0.000000   0.000000
    29  C   -0.000028   0.444052   0.000000   0.000000  -0.000000  -0.000000
    30  S   -0.000151  -0.000151   0.000000   0.000000   0.000000  -0.000002
    31  S   -0.000452  -0.000452  -0.000000  -0.000000  -0.000000  -0.000000
    32  H   -0.000000  -0.000000  -0.000002   0.000000  -0.000000  -0.008512
    33  H   -0.000000  -0.000000  -0.000000  -0.000000   0.000000  -0.000231
    34  H    0.000000  -0.000001   0.000000   0.000002  -0.000002  -0.000162
    35  H   -0.000001   0.000000   0.000000  -0.000002   0.000002   0.000006
    36  H   -0.000000   0.000000   0.006750  -0.000001   0.000144  -0.000033
    37  H   -0.000000  -0.000000  -0.000002  -0.000000   0.000000  -0.000000
    38  H   -0.000000  -0.000000  -0.000000   0.000000  -0.000000  -0.000000
    39  H   -0.000189  -0.000000   0.000000  -0.000000  -0.000000  -0.000000
    40  H   -0.000000  -0.000189   0.000000  -0.000000  -0.000000  -0.000001
    41  H   -0.000000  -0.010524  -0.000000   0.000000   0.000000  -0.000000
    42  H   -0.010524  -0.000000  -0.000000   0.000000   0.000000  -0.000000
    43  H    0.621258   0.000019   0.000000   0.000000   0.000000   0.000000
    44  H    0.000019   0.621260   0.000000   0.000000   0.000000  -0.000000
    45  O    0.000000   0.000000   7.387574   0.000055   0.000055   0.006763
    46  O    0.000000   0.000000   0.000055   7.352660   0.000031   0.000143
    47  O    0.000000   0.000000   0.000055   0.000031   7.352663  -0.000001
    48  H    0.000000  -0.000000   0.006763   0.000143  -0.000001   0.594568
 Mulliken charges:
               1
     1  Mn  -0.792956
     2  C    0.378564
     3  C    0.298482
     4  C    0.378565
     5  Br  -0.635661
     6  N   -0.222423
     7  N   -0.222427
     8  C    0.111708
     9  C   -0.036992
    10  C    0.066352
    11  C   -0.101020
    12  C    0.166338
    13  C    0.166559
    14  C   -0.100964
    15  C    0.111695
    16  C   -0.036993
    17  C    0.066268
    18  C   -0.005438
    19  C   -0.005550
    20  C   -0.046137
    21  C   -0.046202
    22  C   -0.082851
    23  C   -0.082844
    24  C   -0.011751
    25  C   -0.011707
    26  C   -0.018297
    27  C   -0.018295
    28  C   -0.005716
    29  C   -0.005718
    30  S    0.095086
    31  S    0.085667
    32  H    0.059988
    33  H    0.053549
    34  H    0.066792
    35  H    0.066588
    36  H    0.075666
    37  H    0.059984
    38  H    0.053549
    39  H    0.038582
    40  H    0.038577
    41  H    0.050395
    42  H    0.050395
    43  H    0.040571
    44  H    0.040570
    45  O   -0.080484
    46  O   -0.062870
    47  O   -0.062872
    48  H    0.075679
 Sum of Mulliken charges =  -0.00000
 Mulliken charges with hydrogens summed into heavy atoms:
               1
     1  Mn  -0.792956
     2  C    0.378564
     3  C    0.298482
     4  C    0.378565
     5  Br  -0.635661
     6  N   -0.222423
     7  N   -0.222427
     8  C    0.187387
     9  C    0.022996
    10  C    0.119901
    11  C   -0.101020
    12  C    0.233131
    13  C    0.233147
    14  C   -0.100964
    15  C    0.187361
    16  C    0.022991
    17  C    0.119817
    18  C   -0.005438
    19  C   -0.005550
    20  C   -0.046137
    21  C   -0.046202
    22  C   -0.082851
    23  C   -0.082844
    24  C    0.026831
    25  C    0.026870
    26  C    0.032098
    27  C    0.032100
    28  C    0.034855
    29  C    0.034852
    30  S    0.095086
    31  S    0.085667
    45  O   -0.080484
    46  O   -0.062870
    47  O   -0.062872
 Electronic spatial extent (au):  <R**2>=          16454.4627
 Charge=             -0.0000 electrons
 Dipole moment (field-independent basis, Debye):
    X=             -5.9000    Y=              0.0015    Z=             -8.6577  Tot=             10.4769
 Quadrupole moment (field-independent basis, Debye-Ang):
   XX=           -235.0575   YY=           -183.6985   ZZ=           -238.0105
   XY=              0.0067   XZ=            -28.9762   YZ=              0.0016
 Traceless Quadrupole moment (field-independent basis, Debye-Ang):
   XX=            -16.1353   YY=             35.2236   ZZ=            -19.0883
   XY=              0.0067   XZ=            -28.9762   YZ=              0.0016
 Octapole moment (field-independent basis, Debye-Ang**2):
  XXX=             45.7256  YYY=              0.1022  ZZZ=             -5.3839  XYY=            -26.9690
  XXY=              0.0199  XXZ=             45.1547  XZZ=             21.7857  YZZ=             -0.0504
  YYZ=            -28.3019  XYZ=             -0.0074
 Hexadecapole moment (field-independent basis, Debye-Ang**3):
 XXXX=         -12900.8582 YYYY=          -5484.2540 ZZZZ=          -2689.4668 XXXY=             -0.0352
 XXXZ=           -245.4593 YYYX=              0.0860 YYYZ=             -0.1854 ZZZX=              5.8177
 ZZZY=              0.1907 XXYY=          -2935.7682 XXZZ=          -2667.1290 YYZZ=          -1240.9544
 XXYZ=             -0.0370 YYXZ=           -221.7180 ZZXY=              0.0356
 N-N= 5.169398671506D+03 E-N=-2.412998399345D+04  KE= 5.796632065433D+03
 1\1\GINC-C427-032\FOpt\RwB97XD\Gen\C25H14Br1Mn1N2O3S2\DMCINTOS\16-Sep-
 2022\0\\# wB97XD Gen Opt SCRF=(Solvent=TetraHydroFuran)\\Mn Reactant F
 ree Geometry Optimization\\0,1\Mn,-1.3245729733,0.7043200384,-1.331200
 0041\C,0.2508423415,-0.0364786717,-1.8670349508\C,-2.1874770113,-0.080
 3658675,-2.6932266044\C,-1.7151535376,-0.7001351585,-0.2390508001\Br,0
 .0716211286,1.5752262324,0.7094180375\N,-3.1035219295,1.7242359185,-0.
 6565760211\N,-0.8884545779,2.4720609144,-2.4908392719\C,-4.326495133,1
 .2978654056,-1.01897113\C,-5.4916222294,1.960791144,-0.6638929267\C,-5
 .4042948073,3.1365645529,0.0786342141\C,-4.1439592921,3.594388735,0.45
 49927852\C,-3.0326375645,2.833868856,0.0824467262\C,-0.633451235,3.644
 3528579,-1.9050481085\C,-0.4515396051,4.8410597526,-2.6029307031\C,-0.
 9244841019,2.4455741302,-3.8350088225\C,-0.7161112608,3.5718019702,-4.
 6168366731\C,-0.484351419,4.7967480096,-3.9945712306\C,-0.2308487348,6
 .0995422499,-1.8373955454\C,-3.9360177303,4.8482958203,1.2315396993\C,
 -3.2970477054,5.9605046579,0.6527178975\C,-1.2517948027,6.6511785514,-
 1.0413396346\C,-3.0529099186,7.10784299,1.4192733923\C,-1.0039980658,7
 .7998324188,-0.277926505\C,1.0074600894,6.7467283994,-1.8938951514\C,-
 4.3681562244,4.9311617175,2.5588692228\C,-4.1315179642,6.0768183466,3.
 3149875904\C,1.2470914268,7.8935050291,-1.1404327411\C,0.2527153766,8.
 4086394903,-0.3137802671\C,-3.4537251978,7.156732128,2.7565179389\S,-2
 .8869212004,5.9508519695,-1.0785189396\S,-2.2938214104,8.5403246526,0.
 6933033948\H,-6.4554891449,1.56175363,-0.9803243167\H,-6.3020247389,3.
 6944692372,0.3533111635\H,-2.040389965,3.1306318119,0.4208030912\H,-0.
 5450691861,3.6367249655,-0.8191362684\H,-1.1243884883,1.4838538012,-4.
 3080724181\H,-0.7491979085,3.4863418897,-5.703115011\H,-0.3403618648,5
 .7059693762,-4.5821153386\H,1.7972727117,6.3267719377,-2.5201011146\H,
 -4.8745674487,4.0734483984,3.0062787588\H,-4.4602165057,6.121524485,4.
 3546911344\H,2.2235640186,8.3790986812,-1.1819588596\H,0.444194077,9.2
 904093438,0.300820356\H,-3.2401745178,8.0458919978,3.3529298727\O,-2.7
 079294231,-0.6428219959,-3.551145824\O,-1.9652757542,-1.5745286877,0.4
 545075604\O,1.2448518379,-0.4909190466,-2.2040515185\H,-4.3788164296,0
 .3863519332,-1.6148351356\\Version=ES64L-G16RevA.03\State=1-A\HF=-5816
 .1059428\RMSD=5.387e-09\RMSF=7.466e-06\Dipole=-2.4924334,2.6584472,-1.
 9263206\Quadrupole=5.1865979,-14.8467502,9.6601523,21.235764,-16.70012
 94,8.9156884\PG=C01 [X(C25H14Br1Mn1N2O3S2)]\\@


 TRUTH, IN SCIENCE, CAN BE DEFINED AS THE WORKING HYPOTHESIS 
 BEST FITTED TO OPEN THE WAY TO THE NEXT BETTER ONE.

                              -- KONRAD LORENZ
 Job cpu time:       3 days 12 hours 37 minutes 42.2 seconds.
 Elapsed time:       0 days  3 hours 33 minutes 54.1 seconds.
 File lengths (MBytes):  RWF=    703 Int=      0 D2E=      0 Chk=     34 Scr=      1
 Normal termination of Gaussian 16 at Fri Sep 16 16:48:35 2022.
