 Entering Gaussian System, Link 0=g16
 Initial command:
 /home1/apps/gaussian/16rA.03/g16/l1.exe "/tmp/Gau-235970.inp" -scrdir="/tmp/"
 Entering Link 1 = /home1/apps/gaussian/16rA.03/g16/l1.exe PID=    235972.
  
 Copyright (c) 1988,1990,1992,1993,1995,1998,2003,2009,2016,
            Gaussian, Inc.  All Rights Reserved.
  
 This is part of the Gaussian(R) 16 program.  It is based on
 the Gaussian(R) 09 system (copyright 2009, Gaussian, Inc.),
 the Gaussian(R) 03 system (copyright 2003, Gaussian, Inc.),
 the Gaussian(R) 98 system (copyright 1998, Gaussian, Inc.),
 the Gaussian(R) 94 system (copyright 1995, Gaussian, Inc.),
 the Gaussian 92(TM) system (copyright 1992, Gaussian, Inc.),
 the Gaussian 90(TM) system (copyright 1990, Gaussian, Inc.),
 the Gaussian 88(TM) system (copyright 1988, Gaussian, Inc.),
 the Gaussian 86(TM) system (copyright 1986, Carnegie Mellon
 University), and the Gaussian 82(TM) system (copyright 1983,
 Carnegie Mellon University). Gaussian is a federally registered
 trademark of Gaussian, Inc.
  
 This software contains proprietary and confidential information,
 including trade secrets, belonging to Gaussian, Inc.
  
 This software is provided under written license and may be
 used, copied, transmitted, or stored only in accord with that
 written license.
  
 The following legend is applicable only to US Government
 contracts under FAR:
  
                    RESTRICTED RIGHTS LEGEND
  
 Use, reproduction and disclosure by the US Government is
 subject to restrictions as set forth in subparagraphs (a)
 and (c) of the Commercial Computer Software - Restricted
 Rights clause in FAR 52.227-19.
  
 Gaussian, Inc.
 340 Quinnipiac St., Bldg. 40, Wallingford CT 06492
  
  
 ---------------------------------------------------------------
 Warning -- This program may not be used in any manner that
 competes with the business of Gaussian, Inc. or will provide
 assistance to any competitor of Gaussian, Inc.  The licensee
 of this program is prohibited from giving any competitor of
 Gaussian, Inc. access to this program.  By using this program,
 the user acknowledges that Gaussian, Inc. is engaged in the
 business of creating and licensing software in the field of
 computational chemistry and represents and warrants to the
 licensee that it is not a competitor of Gaussian, Inc. and that
 it will not use this program in any manner prohibited above.
 ---------------------------------------------------------------
  

 Cite this work as:
 Gaussian 16, Revision A.03,
 M. J. Frisch, G. W. Trucks, H. B. Schlegel, G. E. Scuseria, 
 M. A. Robb, J. R. Cheeseman, G. Scalmani, V. Barone, 
 G. A. Petersson, H. Nakatsuji, X. Li, M. Caricato, A. V. Marenich, 
 J. Bloino, B. G. Janesko, R. Gomperts, B. Mennucci, H. P. Hratchian, 
 J. V. Ortiz, A. F. Izmaylov, J. L. Sonnenberg, D. Williams-Young, 
 F. Ding, F. Lipparini, F. Egidi, J. Goings, B. Peng, A. Petrone, 
 T. Henderson, D. Ranasinghe, V. G. Zakrzewski, J. Gao, N. Rega, 
 G. Zheng, W. Liang, M. Hada, M. Ehara, K. Toyota, R. Fukuda, 
 J. Hasegawa, M. Ishida, T. Nakajima, Y. Honda, O. Kitao, H. Nakai, 
 T. Vreven, K. Throssell, J. A. Montgomery, Jr., J. E. Peralta, 
 F. Ogliaro, M. J. Bearpark, J. J. Heyd, E. N. Brothers, K. N. Kudin, 
 V. N. Staroverov, T. A. Keith, R. Kobayashi, J. Normand, 
 K. Raghavachari, A. P. Rendell, J. C. Burant, S. S. Iyengar, 
 J. Tomasi, M. Cossi, J. M. Millam, M. Klene, C. Adamo, R. Cammi, 
 J. W. Ochterski, R. L. Martin, K. Morokuma, O. Farkas, 
 J. B. Foresman, and D. J. Fox, Gaussian, Inc., Wallingford CT, 2016.
 
 ******************************************
 Gaussian 16:  ES64L-G16RevA.03 25-Dec-2016
                22-Oct-2022 
 ******************************************
 %Chk=checkpoint.chk
 %NProcShared=12
 Will use up to   12 processors via shared memory.
 ------------------------------------------------------
 # wB97XD Gen Opt=(QST2) SCRF=(Solvent=TetraHydroFuran)
 ------------------------------------------------------
 1/5=1,18=20,26=3,27=202,38=1/1,3;
 2/9=110,12=2,17=6,18=5,40=1/2;
 3/5=7,11=2,25=1,30=1,70=2201,71=1,72=20,74=-58/1,2,3;
 4//1;
 5/5=2,38=5,53=20/2;
 6/7=2,8=2,9=2,10=2,28=1/1;
 7//1,2,3,16;
 1/5=1,18=20,26=3,27=202/3(2);
 2/9=110/2;
 99//99;
 2/9=110/2;
 3/5=7,6=1,11=2,25=1,30=1,70=2205,71=1,72=20,74=-58,82=7/1,2,3;
 4/5=5,16=3,69=1/1;
 5/5=2,38=5,53=20/2;
 7//1,2,3,16;
 1/5=1,18=20,26=3,27=202/3(-5);
 2/9=110/2;
 6/7=2,8=2,9=2,10=2,19=2,28=1/1;
 99/9=1/99;
 ----------------------------
 Mn Transition State Reactant
 ----------------------------
 Symbolic Z-matrix:
 Charge =  0 Multiplicity = 1
 Mn                    0.        0.        0. 
 C                    -0.09679   1.8323    0.02295 
 C                     0.        0.       -1.82342 
 C                     1.83282   0.       -0.02938 
 Br                    2.02073   2.02073   2.02073 
 N                    -0.04922  -2.15482   0.09332 
 N                    -2.15153  -0.14036   0.09515 
 C                     0.52385  -2.93988  -0.8355 
 C                     0.57609  -4.32182  -0.71618 
 C                     0.03787  -4.93262   0.41495 
 C                    -0.56724  -4.13205   1.38331 
 C                    -0.59422  -2.75751   1.15179 
 C                    -2.76019  -0.33999   1.26803 
 C                    -4.08404  -0.75052   1.40528 
 C                    -2.90821  -0.24504  -1.01025 
 C                    -4.25761  -0.57119  -0.97276 
 C                    -4.8572   -0.85573   0.2508 
 C                    -4.54612  -1.14763   2.76568 
 C                    -1.06072  -4.64508   2.69242 
 C                    -2.36035  -4.39435   3.17469 
 C                    -4.2951   -2.45577   3.22064 
 C                    -2.7088   -4.77698   4.4776 
 C                    -4.6235   -2.81682   4.53378 
 C                    -5.16246  -0.23395   3.6234 
 C                    -0.16193  -5.33835   3.51187 
 C                    -0.5204   -5.73496   4.79711 
 C                    -5.49479  -0.60032   4.92642 
 C                    -5.20842  -1.88092   5.39075 
 C                    -1.78362  -5.43139   5.29359 
 S                    -3.59561  -3.66717   2.11779 
 S                    -4.34059  -4.47249   5.11215 
 H                     1.05087  -4.91025  -1.50139 
 H                     0.08951  -6.01597   0.54182 
 H                    -1.07315  -2.12266   1.89001 
 H                    -2.16282  -0.19695   2.1652 
 H                    -2.4226   -0.06909  -1.96947 
 H                    -4.81913  -0.6322   -1.90505 
 H                    -5.90099  -1.1706    0.30616 
 H                    -5.36522   0.7782    3.26819 
 H                     0.84657  -5.53732   3.14359 
 H                     0.19986  -6.26023   5.42631 
 H                    -5.96589   0.12432   5.59251 
 H                    -5.4428   -2.16193   6.41931 
 H                    -2.05931  -5.70427   6.31399 
 O                     0.06255   0.01915  -2.96537 
 O                     2.97377  -0.00521  -0.04518 
 O                    -0.17883   2.9698    0.0391 
 H                     0.9665   -2.44597  -1.70172 
 N                     0.1205   -0.06435   2.03055 
 C                     0.1757   -0.32041   3.1556 
 C                     0.0988   -0.78664   4.50696 
 C                     1.18058  -0.65782   5.389 
 C                    -1.08395  -1.43608   4.90265 
 C                     1.07101  -1.1882    6.67028 
 H                     2.09302  -0.15307   5.06933 
 C                    -1.1749   -1.96428   6.18414 
 H                    -1.92637  -1.52866   4.21411 
 C                    -0.09853  -1.84109   7.06447 
 H                     1.90634  -1.09472   7.36578 
 H                    -2.08869  -2.47607   6.49182 
 H                    -0.17211  -2.25847   8.07044 
 
 Add virtual bond connecting atoms C2         and Br5        Dist= 5.51D+00.
 Add virtual bond connecting atoms C4         and Br5        Dist= 5.45D+00.
 Add virtual bond connecting atoms N49        and Br5        Dist= 5.33D+00.
 ---------------------------
 Mn Transition State Product
 ---------------------------
 Symbolic Z-matrix:
 Charge =  0 Multiplicity = 1
 Mn                    0.        0.        0. 
 C                    -0.08831   1.81915   0.02694 
 C                     0.        0.       -1.79318 
 C                     1.82129   0.        0.02701 
 Br                    0.21406   0.22525   2.60296 
 N                    -0.00198  -2.15626   0.10267 
 N                    -2.15359  -0.10666   0.10261 
 C                     0.38734  -2.90055  -0.94769 
 C                     0.33894  -4.28645  -0.94857 
 C                    -0.15783  -4.94905   0.17197 
 C                    -0.57167  -4.19114   1.26468 
 C                    -0.44573  -2.80197   1.18369 
 C                    -2.77703  -0.58203   1.18326 
 C                    -4.15855  -0.77451   1.26439 
 C                    -2.91591   0.24739  -0.9473 
 C                    -4.29788   0.13244  -0.94805 
 C                    -4.93564  -0.39652   0.17216 
 C                    -4.73565  -1.36773   2.50277 
 C                    -1.13591  -4.79615   2.50328 
 C                    -2.48294  -4.59586   2.85783 
 C                    -4.47     -2.70335   2.85753 
 C                    -2.9782   -5.11928   4.05963 
 C                    -4.96894  -3.2234    4.05928 
 C                    -5.54655  -0.59398   3.33896 
 C                    -0.32361  -5.56806   3.33979 
 C                    -0.82204  -6.0942    4.52932 
 C                    -6.04809  -1.11734   4.52841 
 C                    -5.74193  -2.42245   4.90321 
 C                    -2.14059  -5.85203   4.90386 
 S                    -3.58496  -3.76369   1.73597 
 S                    -4.6875   -4.9209    4.50034 
 H                     0.67663  -4.83606  -1.82736 
 H                    -0.23113  -6.03846   0.19274 
 H                    -0.69729  -2.18819   2.04804 
 H                    -2.15175  -0.80469   2.04727 
 H                    -2.4021    0.64317  -1.82367 
 H                    -4.86325   0.44411  -1.82647 
 H                    -6.02029  -0.52198   0.19305 
 H                    -5.76345   0.43908   3.05961 
 H                     0.71885  -5.73439   3.0606 
 H                    -0.17222  -6.6814    5.18043 
 H                    -6.66649  -0.49688   5.17925 
 H                    -6.10842  -2.82852   5.84804 
 H                    -2.52842  -6.23768   5.84873 
 O                     0.04791   0.05036  -2.9414 
 O                     2.96474  -0.00968   0.05082 
 O                    -0.15349   2.9608    0.05043 
 H                     0.75715  -2.36822  -1.82434 
 N                    -1.3568   -1.3568    4.0704 
 C                    -1.04349  -1.04349   5.14011 
 C                    -0.6536   -0.65439   6.46977 
 C                     0.39556  -1.32706   7.11332 
 C                    -1.32622   0.39514   7.11336 
 C                     0.76702  -0.94552   8.39909 
 H                     0.91283  -2.14225   6.60491 
 C                    -0.94477   0.76652   8.39898 
 H                    -2.14119   0.91231   6.60452 
 C                     0.09912   0.09839   9.04072 
 H                     1.58298  -1.46661   8.90291 
 H                    -1.46566   1.58254   8.90292 
 H                     0.39446   0.3937    10.04957 
 
 Add virtual bond connecting atoms N49        and H34        Dist= 4.32D+00.
 Add virtual bond connecting atoms N49        and H35        Dist= 4.24D+00.
 Iteration  1 RMS(Cart)=  0.17984603 RMS(Int)=  0.69192189
 Iteration  2 RMS(Cart)=  0.10768837 RMS(Int)=  0.68275394
 Iteration  3 RMS(Cart)=  0.12968485 RMS(Int)=  0.67802371
 Iteration  4 RMS(Cart)=  0.09494662 RMS(Int)=  0.67350977
 Iteration  5 RMS(Cart)=  0.07762937 RMS(Int)=  0.67198111
 Iteration  6 RMS(Cart)=  0.08242982 RMS(Int)=  0.66732401
 Iteration  7 RMS(Cart)=  0.07494095 RMS(Int)=  0.66365930
 Iteration  8 RMS(Cart)=  0.09091165 RMS(Int)=  0.65911071
 Iteration  9 RMS(Cart)=  0.04977710 RMS(Int)=  0.65584378
 Iteration 10 RMS(Cart)=  0.02639670 RMS(Int)=  0.65327728
 Iteration 11 RMS(Cart)=  0.01346248 RMS(Int)=  0.65106325
 Iteration 12 RMS(Cart)=  0.00834547 RMS(Int)=  0.64907303
 Iteration 13 RMS(Cart)=  0.00719898 RMS(Int)=  0.64731464
 Iteration 14 RMS(Cart)=  0.00649285 RMS(Int)=  0.64578117
 Iteration 15 RMS(Cart)=  0.00584026 RMS(Int)=  0.64445712
 Iteration 16 RMS(Cart)=  0.00521148 RMS(Int)=  0.64331942
 Iteration 17 RMS(Cart)=  0.00463860 RMS(Int)=  0.64234527
 Iteration 18 RMS(Cart)=  0.00430838 RMS(Int)=  0.64148679
 Iteration 19 RMS(Cart)=  0.00397486 RMS(Int)=  0.64072296
 Iteration 20 RMS(Cart)=  0.00374981 RMS(Int)=  0.64002518
 Iteration 21 RMS(Cart)=  0.00362191 RMS(Int)=  0.63937491
 Iteration 22 RMS(Cart)=  0.00352844 RMS(Int)=  0.63876423
 Iteration 23 RMS(Cart)=  0.00345348 RMS(Int)=  0.63818832
 Iteration 24 RMS(Cart)=  0.00338792 RMS(Int)=  0.63764383
 Iteration 25 RMS(Cart)=  0.00332778 RMS(Int)=  0.63712812
 Iteration 26 RMS(Cart)=  0.00327124 RMS(Int)=  0.63663898
 Iteration 27 RMS(Cart)=  0.00321745 RMS(Int)=  0.63617445
 Iteration 28 RMS(Cart)=  0.00316593 RMS(Int)=  0.63573284
 Iteration 29 RMS(Cart)=  0.00311643 RMS(Int)=  0.63531261
 Iteration 30 RMS(Cart)=  0.00306888 RMS(Int)=  0.63491131
 Iteration 31 RMS(Cart)=  0.00302280 RMS(Int)=  0.63452667
 Iteration 32 RMS(Cart)=  0.00297837 RMS(Int)=  0.63415757
 Iteration 33 RMS(Cart)=  0.00293575 RMS(Int)=  0.63380316
 Iteration 34 RMS(Cart)=  0.00289464 RMS(Int)=  0.63346273
 Iteration 35 RMS(Cart)=  0.00285495 RMS(Int)=  0.63313563
 Iteration 36 RMS(Cart)=  0.00281660 RMS(Int)=  0.63282128
 Iteration 37 RMS(Cart)=  0.00277952 RMS(Int)=  0.63251916
 Iteration 38 RMS(Cart)=  0.00274367 RMS(Int)=  0.63222874
 Iteration 39 RMS(Cart)=  0.00270899 RMS(Int)=  0.63194959
 Iteration 40 RMS(Cart)=  0.00267545 RMS(Int)=  0.63168126
 Iteration 41 RMS(Cart)=  0.00264300 RMS(Int)=  0.63142334
 Iteration 42 RMS(Cart)=  0.00261160 RMS(Int)=  0.63117546
 Iteration 43 RMS(Cart)=  0.00258121 RMS(Int)=  0.63093725
 Iteration 44 RMS(Cart)=  0.00255179 RMS(Int)=  0.63070838
 Iteration 45 RMS(Cart)=  0.00252330 RMS(Int)=  0.63048852
 Iteration 46 RMS(Cart)=  0.00249571 RMS(Int)=  0.63027737
 Iteration 47 RMS(Cart)=  0.00246898 RMS(Int)=  0.63007465
 Iteration 48 RMS(Cart)=  0.00244309 RMS(Int)=  0.62988008
 Iteration 49 RMS(Cart)=  0.00241798 RMS(Int)=  0.62969340
 Iteration 50 RMS(Cart)=  0.00239365 RMS(Int)=  0.62951437
 Iteration 51 RMS(Cart)=  0.00237005 RMS(Int)=  0.62934276
 Iteration 52 RMS(Cart)=  0.00234717 RMS(Int)=  0.62917835
 Iteration 53 RMS(Cart)=  0.00232496 RMS(Int)=  0.62902092
 Iteration 54 RMS(Cart)=  0.00230342 RMS(Int)=  0.62887027
 Iteration 55 RMS(Cart)=  0.00228250 RMS(Int)=  0.62872622
 Iteration 56 RMS(Cart)=  0.00226220 RMS(Int)=  0.62858858
 Iteration 57 RMS(Cart)=  0.00224248 RMS(Int)=  0.62845718
 Iteration 58 RMS(Cart)=  0.00222333 RMS(Int)=  0.62833185
 Iteration 59 RMS(Cart)=  0.00220473 RMS(Int)=  0.62821244
 Iteration 60 RMS(Cart)=  0.00218665 RMS(Int)=  0.62809879
 Iteration 61 RMS(Cart)=  0.00216908 RMS(Int)=  0.62799077
 Iteration 62 RMS(Cart)=  0.00215200 RMS(Int)=  0.62788823
 Iteration 63 RMS(Cart)=  0.00213539 RMS(Int)=  0.62779104
 Iteration 64 RMS(Cart)=  0.00211923 RMS(Int)=  0.62769907
 Iteration 65 RMS(Cart)=  0.00210352 RMS(Int)=  0.62761221
 Iteration 66 RMS(Cart)=  0.00208823 RMS(Int)=  0.62753034
 Iteration 67 RMS(Cart)=  0.00207336 RMS(Int)=  0.62745335
 Iteration 68 RMS(Cart)=  0.00205888 RMS(Int)=  0.62738113
 Iteration 69 RMS(Cart)=  0.00204478 RMS(Int)=  0.62731358
 Iteration 70 RMS(Cart)=  0.00203106 RMS(Int)=  0.62725061
 Iteration 71 RMS(Cart)=  0.00201770 RMS(Int)=  0.62719212
 Iteration 72 RMS(Cart)=  0.00200468 RMS(Int)=  0.62713802
 Iteration 73 RMS(Cart)=  0.00199200 RMS(Int)=  0.62708822
 Iteration 74 RMS(Cart)=  0.00197965 RMS(Int)=  0.62704264
 Iteration 75 RMS(Cart)=  0.00196761 RMS(Int)=  0.62700121
 Iteration 76 RMS(Cart)=  0.00195588 RMS(Int)=  0.62696384
 Iteration 77 RMS(Cart)=  0.00194445 RMS(Int)=  0.62693046
 Iteration 78 RMS(Cart)=  0.00193330 RMS(Int)=  0.62690101
 Iteration 79 RMS(Cart)=  0.00192243 RMS(Int)=  0.62687541
 Iteration 80 RMS(Cart)=  0.00191183 RMS(Int)=  0.62685360
 Iteration 81 RMS(Cart)=  0.00190148 RMS(Int)=  0.62683552
 Iteration 82 RMS(Cart)=  0.00189139 RMS(Int)=  0.62682110
 Iteration 83 RMS(Cart)=  0.00188155 RMS(Int)=  0.62681029
 Iteration 84 RMS(Cart)=  0.00187194 RMS(Int)=  0.62680304
 Iteration 85 RMS(Cart)=  0.00186256 RMS(Int)=  0.62679928
 Iteration 86 RMS(Cart)=  0.00185341 RMS(Int)=  0.62679897
 Iteration 87 RMS(Cart)=  0.00184446 RMS(Int)=  0.62680206
 Iteration 88 RMS(Cart)=  0.00183573 RMS(Int)=  0.62680850
 Iteration 89 RMS(Cart)=  0.00182720 RMS(Int)=  0.62681824
 Iteration 90 RMS(Cart)=  0.00181886 RMS(Int)=  0.62683125
 Iteration 91 RMS(Cart)=  0.00181071 RMS(Int)=  0.62684747
 Iteration 92 RMS(Cart)=  0.00180274 RMS(Int)=  0.62686688
 Iteration 93 RMS(Cart)=  0.00179494 RMS(Int)=  0.62688942
 Iteration 94 RMS(Cart)=  0.00178732 RMS(Int)=  0.62691506
 Iteration 95 RMS(Cart)=  0.00177986 RMS(Int)=  0.62694377
 Iteration 96 RMS(Cart)=  0.00177256 RMS(Int)=  0.62697551
 Iteration 97 RMS(Cart)=  0.00176541 RMS(Int)=  0.62701025
 Iteration 98 RMS(Cart)=  0.00175840 RMS(Int)=  0.62704796
 Iteration 99 RMS(Cart)=  0.00175153 RMS(Int)=  0.62708861
 Iteration100 RMS(Cart)=  0.00174480 RMS(Int)=  0.62713217
 New curvilinear step not converged.
 FormGI is forming the generalized inverse of G from B-inverse, IUseBI=4.
 RedQX1 iteration     1 Try  1 RMS(Cart)=  0.39070504 RMS(Int)=  0.67013323 XScale=  8.67549260
 RedQX1 iteration     1 Try  2 RMS(Cart)=  0.39569015 RMS(Int)=  0.64137686 XScale=  4.24931082
 RedQX1 iteration     1 Try  3 RMS(Cart)=  0.42617413 RMS(Int)=  0.62961642 XScale=  2.74676038
 RedQX1 iteration     1 Try  4 RMS(Cart)=  0.52803975 RMS(Int)=  0.63750721 XScale=  1.94837493
 RedQX1 iteration     1 Try  5 RMS(Cart)=  0.89727672 RMS(Int)=  0.68559783 XScale=  1.35166046
 RedQX1 iteration     1 Try  6 RMS(Cart)=  0.79150842 RMS(Int)=  0.73105358 XScale=  1.11094842
 RedQX1 iteration     2 Try  1 RMS(Cart)=  0.15877648 RMS(Int)=  0.73692853 XScale=  1.08188091
 RedQX1 iteration     2 Try  2 RMS(Cart)=  0.20154900 RMS(Int)=  0.75024601 XScale=  1.03904308
 RedQX1 iteration     2 Try  3 RMS(Cart)=  0.28394225 RMS(Int)=  0.78252294 XScale=  0.96844220
 RedQX1 iteration     3 Try  1 RMS(Cart)=  0.17036535 RMS(Int)=  0.76670990 XScale=  0.99945271
 RedQX1 iteration     3 Try  2 RMS(Cart)=  0.22873559 RMS(Int)=  0.79910628 XScale=  0.93962207
 RedQX1 iteration     4 Try  1 RMS(Cart)=  0.18298848 RMS(Int)=  0.79120580 XScale=  0.95282146
 RedQX1 iteration     5 Try  1 RMS(Cart)=  0.03659770 RMS(Int)=  0.77074906 XScale=  0.99093492
 RedQX1 iteration     6 Try  1 RMS(Cart)=  0.00731954 RMS(Int)=  0.76748453 XScale=  0.99778299
 RedQX1 iteration     7 Try  1 RMS(Cart)=  0.00146391 RMS(Int)=  0.76686350 XScale=  0.99912014
 RedQX1 iteration     7 Try  2 RMS(Cart)=  0.00146714 RMS(Int)=  0.76701790 XScale=  0.99878652
 RedQX1 iteration     8 Try  1 RMS(Cart)=  0.00146479 RMS(Int)=  0.76701765 XScale=  0.99878706
 RedQX1 iteration     9 Try  1 RMS(Cart)=  0.00029296 RMS(Int)=  0.76689428 XScale=  0.99905358
 RedQX1 iteration     9 Try  2 RMS(Cart)=  0.00029309 RMS(Int)=  0.76692509 XScale=  0.99898697
 RedQX1 iteration    10 Try  1 RMS(Cart)=  0.00029299 RMS(Int)=  0.76692508 XScale=  0.99898699
 RedQX1 iteration    11 Try  1 RMS(Cart)=  0.00005860 RMS(Int)=  0.76690044 XScale=  0.99904026
 RedQX1 iteration    11 Try  2 RMS(Cart)=  0.00005860 RMS(Int)=  0.76690660 XScale=  0.99902695
 RedQX1 iteration    11 Try  3 RMS(Cart)=  0.00005861 RMS(Int)=  0.76691276 XScale=  0.99901363
 RedQX1 iteration    11 Try  4 RMS(Cart)=  0.00005861 RMS(Int)=  0.76691892 XScale=  0.99900031
 RedQX1 iteration    11 Try  5 RMS(Cart)=  0.00005862 RMS(Int)=  0.76692508 XScale=  0.99898699
 RedQX1 iteration    12 Try  1 RMS(Cart)=  0.00005860 RMS(Int)=  0.76692508 XScale=  0.99898699
 RedQX1 iteration    13 Try  1 RMS(Cart)=  0.00001172 RMS(Int)=  0.76692015 XScale=  0.99899765
 RedQX1 iteration    14 Try  1 RMS(Cart)=  0.00000234 RMS(Int)=  0.76691916 XScale=  0.99899978
 RedQX1 iteration    15 Try  1 RMS(Cart)=  0.00000047 RMS(Int)=  0.76691897 XScale=  0.99900020
 RedQX1 iteration    15 Try  2 RMS(Cart)=  0.00000047 RMS(Int)=  0.76691902 XScale=  0.99900010
 RedQX1 iteration    15 Try  3 RMS(Cart)=  0.00000047 RMS(Int)=  0.76691907 XScale=  0.99899999
 RedQX1 iteration    16 Try  1 RMS(Cart)=  0.00000047 RMS(Int)=  0.76691907 XScale=  0.99899999
 RedQX1 iteration    17 Try  1 RMS(Cart)=  0.00000009 RMS(Int)=  0.76691903 XScale=  0.99900008
 Iteration  1 RMS(Cart)=  0.43457648 RMS(Int)=  2.28440648
 Iteration  2 RMS(Cart)=  0.43256547 RMS(Int)=  2.22039349
 Iteration  3 RMS(Cart)=  0.10328995 RMS(Int)=  2.20217887
 Iteration  4 RMS(Cart)=  0.08053834 RMS(Int)=  2.19038260
 Iteration  5 RMS(Cart)=  0.14962134 RMS(Int)=  2.16608881
 Iteration  6 RMS(Cart)=  0.12352284 RMS(Int)=  2.14573671
 Iteration  7 RMS(Cart)=  0.09823343 RMS(Int)=  2.12937656
 Iteration  8 RMS(Cart)=  0.26975160 RMS(Int)=  2.08569696
 Iteration  9 RMS(Cart)=  0.41092773 RMS(Int)=  2.02090362
 Iteration 10 RMS(Cart)=  0.09744895 RMS(Int)=  2.00260192
 Iteration 11 RMS(Cart)=  0.09927638 RMS(Int)=  1.98378571
 Iteration 12 RMS(Cart)=  0.09363872 RMS(Int)=  1.96583244
 Iteration 13 RMS(Cart)=  0.03729018 RMS(Int)=  1.95844453
 Iteration 14 RMS(Cart)=  0.03353174 RMS(Int)=  1.95175770
 Iteration 15 RMS(Cart)=  0.02731217 RMS(Int)=  1.94627257
 Iteration 16 RMS(Cart)=  0.02581173 RMS(Int)=  1.94106839
 Iteration 17 RMS(Cart)=  0.02410345 RMS(Int)=  1.93618651
 Iteration 18 RMS(Cart)=  0.02310546 RMS(Int)=  1.93148441
 Iteration 19 RMS(Cart)=  0.02243604 RMS(Int)=  1.92928715
 Iteration 20 RMS(Cart)=  0.02760439 RMS(Int)=  1.92336468
 Iteration 21 RMS(Cart)=  0.02673755 RMS(Int)=  1.91761639
 Iteration 22 RMS(Cart)=  0.02609274 RMS(Int)=  1.91195296
 Iteration 23 RMS(Cart)=  0.03089830 RMS(Int)=  1.90437997
 Iteration 24 RMS(Cart)=  0.05498424 RMS(Int)=  1.89196928
 Iteration 25 RMS(Cart)=  0.05247850 RMS(Int)=  1.88184756
 Iteration 26 RMS(Cart)=  0.05079389 RMS(Int)=  1.86809272
 Iteration 27 RMS(Cart)=  0.03867407 RMS(Int)=  1.85217214
 Iteration 28 RMS(Cart)=  0.04200929 RMS(Int)=  1.84098431
 Iteration 29 RMS(Cart)=  0.02853917 RMS(Int)=  1.83695822
 Iteration 30 RMS(Cart)=  0.02489272 RMS(Int)=  1.82927092
 Iteration 31 RMS(Cart)=  0.03371686 RMS(Int)=  1.82364887
 Iteration 32 RMS(Cart)=  0.03294947 RMS(Int)=  1.81371333
 Iteration 33 RMS(Cart)=  0.03388209 RMS(Int)=  1.80804750
 Iteration 34 RMS(Cart)=  0.03333052 RMS(Int)=  1.79763603
 Iteration 35 RMS(Cart)=  0.02625906 RMS(Int)=  1.79388370
 Iteration 36 RMS(Cart)=  0.03224080 RMS(Int)=  1.78343578
 Iteration 37 RMS(Cart)=  0.02548981 RMS(Int)=  1.77984743
 Iteration 38 RMS(Cart)=  0.03114665 RMS(Int)=  1.77223687
 Iteration 39 RMS(Cart)=  0.03658147 RMS(Int)=  1.76568954
 Iteration 40 RMS(Cart)=  0.04330162 RMS(Int)=  1.75208533
 Iteration 41 RMS(Cart)=  0.03606427 RMS(Int)=  1.74558038
 Iteration 42 RMS(Cart)=  0.03495720 RMS(Int)=  1.72827089
 Iteration 43 RMS(Cart)=  0.03227008 RMS(Int)=  1.72834841
 Iteration 44 RMS(Cart)=  0.03318436 RMS(Int)=  1.71165728
 Iteration 45 RMS(Cart)=  0.03055620 RMS(Int)=  1.71165937
 Iteration 46 RMS(Cart)=  0.03130751 RMS(Int)=  1.69560937
 Iteration 47 RMS(Cart)=  0.02975305 RMS(Int)=  1.68969033
 Iteration 48 RMS(Cart)=  0.02861613 RMS(Int)=  1.68553018
 Iteration 49 RMS(Cart)=  0.02924916 RMS(Int)=  1.67407486
 Iteration 50 RMS(Cart)=  0.02579149 RMS(Int)=  1.67029820
 Iteration 51 RMS(Cart)=  0.02610851 RMS(Int)=  1.65975545
 Iteration 52 RMS(Cart)=  0.02272875 RMS(Int)=  1.65646099
 Iteration 53 RMS(Cart)=  0.02282075 RMS(Int)=  1.64696701
 Iteration 54 RMS(Cart)=  0.01983067 RMS(Int)=  1.63907483
 Iteration 55 RMS(Cart)=  0.01485245 RMS(Int)=  1.64176103
 Iteration 56 RMS(Cart)=  0.01328946 RMS(Int)=  1.63095985
 Iteration 57 RMS(Cart)=  0.01291491 RMS(Int)=  1.63392855
 Iteration 58 RMS(Cart)=  0.01262689 RMS(Int)=  1.62347016
 Iteration 59 RMS(Cart)=  0.01229018 RMS(Int)=  1.62640799
 Iteration 60 RMS(Cart)=  0.01193696 RMS(Int)=  1.61628740
 Iteration 61 RMS(Cart)=  0.01156760 RMS(Int)=  1.61420171
 Iteration 62 RMS(Cart)=  0.01076333 RMS(Int)=  1.61435089
 Iteration 63 RMS(Cart)=  0.01057559 RMS(Int)=  1.60777762
 Iteration 64 RMS(Cart)=  0.00977906 RMS(Int)=  1.60798309
 Iteration 65 RMS(Cart)=  0.00937528 RMS(Int)=  1.60191504
 Iteration 66 RMS(Cart)=  0.00906535 RMS(Int)=  1.60218689
 Iteration 67 RMS(Cart)=  0.00870224 RMS(Int)=  1.59653598
 Iteration 68 RMS(Cart)=  0.00881929 RMS(Int)=  1.59170929
 Iteration 69 RMS(Cart)=  0.00739010 RMS(Int)=  1.59430789
 Iteration 70 RMS(Cart)=  0.00831953 RMS(Int)=  1.58882900
 Iteration 71 RMS(Cart)=  0.00729225 RMS(Int)=  1.58876010
 Iteration 72 RMS(Cart)=  0.00781550 RMS(Int)=  1.58534609
 Iteration 73 RMS(Cart)=  0.00659298 RMS(Int)=  1.58306935
 Iteration 74 RMS(Cart)=  0.00646234 RMS(Int)=  1.58207960
 Iteration 75 RMS(Cart)=  0.00617113 RMS(Int)=  1.57914840
 Iteration 76 RMS(Cart)=  0.00575276 RMS(Int)=  1.57814680
 Iteration 77 RMS(Cart)=  0.00595855 RMS(Int)=  1.57550752
 Iteration 78 RMS(Cart)=  0.00554618 RMS(Int)=  1.56964996
 Iteration 79 RMS(Cart)=  0.00518347 RMS(Int)=  1.57675499
 Iteration 80 RMS(Cart)=  0.00524498 RMS(Int)=  1.56624576
 Iteration 81 RMS(Cart)=  0.00500102 RMS(Int)=  1.57349805
 Iteration 82 RMS(Cart)=  0.00510095 RMS(Int)=  1.56292990
 Iteration 83 RMS(Cart)=  0.00482464 RMS(Int)=  1.57031087
 Iteration 84 RMS(Cart)=  0.00482123 RMS(Int)=  1.55989615
 Iteration 85 RMS(Cart)=  0.00506674 RMS(Int)=  1.56271198
 Iteration 86 RMS(Cart)=  0.00474149 RMS(Int)=  1.56094288
 Iteration 87 RMS(Cart)=  0.00456322 RMS(Int)=  1.55979350
 Iteration 88 RMS(Cart)=  0.00489678 RMS(Int)=  1.55774136
 Iteration 89 RMS(Cart)=  0.00439600 RMS(Int)=  1.55201155
 Iteration 90 RMS(Cart)=  0.00426022 RMS(Int)=  1.55940899
 Iteration 91 RMS(Cart)=  0.00428785 RMS(Int)=  1.54918047
 Iteration 92 RMS(Cart)=  0.00400555 RMS(Int)=  1.55665653
 Iteration 93 RMS(Cart)=  0.00416419 RMS(Int)=  1.54651610
 Iteration 94 RMS(Cart)=  0.00438656 RMS(Int)=  1.54925153
 Iteration 95 RMS(Cart)=  0.00380855 RMS(Int)=  1.55268950
 Iteration 96 RMS(Cart)=  0.00404764 RMS(Int)=  1.54198783
 Iteration 97 RMS(Cart)=  0.00387602 RMS(Int)=  1.55007816
 Iteration 98 RMS(Cart)=  0.00401873 RMS(Int)=  1.53933842
 Iteration 99 RMS(Cart)=  0.00384899 RMS(Int)=  1.54743047
 Iteration100 RMS(Cart)=  0.00395347 RMS(Int)=  1.53683150
 New curvilinear step not converged.
 FormGI is forming the generalized inverse of G from B-inverse, IUseBI=4.
 RedQX1 iteration     1 Try  1 RMS(Cart)=  1.20440558 RMS(Int)=  2.17360464 XScale=  7.48431049
 RedQX1 iteration     1 Try  2 RMS(Cart)=  1.24123346 RMS(Int)=  2.21669006 XScale=  3.39385634
 RedQX1 iteration     1 Try  3 RMS(Cart)=  1.51197396 RMS(Int)=  2.51995558 XScale=  1.93470238
 RedQX1 iteration     1 Try  4 RMS(Cart)=  2.48722961 RMS(Int)=  3.48165228 XScale=  1.06137426
 RedQX1 iteration     1 Try  5 RMS(Cart)=  6.80982550 RMS(Int)=  6.65949615 XScale=  0.43659934
 RedQX1 iteration     2 Try  1 RMS(Cart)=  1.36196510 RMS(Int)=  4.05013641 XScale=  0.84729320
 RedQX1 iteration     3 Try  1 RMS(Cart)=  0.27239302 RMS(Int)=  3.59551118 XScale=  1.01310150
 RedQX1 iteration     3 Try  2 RMS(Cart)=  0.29216176 RMS(Int)=  3.70896925 XScale=  0.96514516
 RedQX1 iteration     4 Try  1 RMS(Cart)=  0.28047529 RMS(Int)=  3.70433062 XScale=  0.96701029
 RedQX1 iteration     5 Try  1 RMS(Cart)=  0.05609506 RMS(Int)=  3.61689147 XScale=  1.00368034
 RedQX1 iteration     5 Try  2 RMS(Cart)=  0.05682255 RMS(Int)=  3.63863680 XScale=  0.99427686
 RedQX1 iteration     6 Try  1 RMS(Cart)=  0.05636797 RMS(Int)=  3.63846205 XScale=  0.99435168
 RedQX1 iteration     7 Try  1 RMS(Cart)=  0.01127359 RMS(Int)=  3.62119003 XScale=  1.00180656
 RedQX1 iteration     7 Try  2 RMS(Cart)=  0.01130267 RMS(Int)=  3.62550321 XScale=  0.99993349
 RedQX1 iteration     7 Try  3 RMS(Cart)=  0.01133189 RMS(Int)=  3.62983112 XScale=  0.99806112
 RedQX1 iteration     8 Try  1 RMS(Cart)=  0.01129563 RMS(Int)=  3.62981726 XScale=  0.99806710
 RedQX1 iteration     9 Try  1 RMS(Cart)=  0.00225913 RMS(Int)=  3.62636540 XScale=  0.99955989
 RedQX1 iteration     9 Try  2 RMS(Cart)=  0.00226029 RMS(Int)=  3.62722817 XScale=  0.99918632
 RedQX1 iteration     9 Try  3 RMS(Cart)=  0.00226146 RMS(Int)=  3.62809153 XScale=  0.99881278
 RedQX1 iteration    10 Try  1 RMS(Cart)=  0.00226001 RMS(Int)=  3.62809098 XScale=  0.99881301
 RedQX1 iteration    11 Try  1 RMS(Cart)=  0.00045200 RMS(Int)=  3.62740071 XScale=  0.99911164
 RedQX1 iteration    11 Try  2 RMS(Cart)=  0.00045205 RMS(Int)=  3.62757327 XScale=  0.99903697
 RedQX1 iteration    11 Try  3 RMS(Cart)=  0.00045210 RMS(Int)=  3.62774585 XScale=  0.99896230
 RedQX1 iteration    12 Try  1 RMS(Cart)=  0.00045204 RMS(Int)=  3.62774583 XScale=  0.99896231
 RedQX1 iteration    13 Try  1 RMS(Cart)=  0.00009041 RMS(Int)=  3.62760778 XScale=  0.99902204
 RedQX1 iteration    13 Try  2 RMS(Cart)=  0.00009041 RMS(Int)=  3.62764229 XScale=  0.99900711
 RedQX1 iteration    13 Try  3 RMS(Cart)=  0.00009041 RMS(Int)=  3.62767680 XScale=  0.99899217
 RedQX1 iteration    14 Try  1 RMS(Cart)=  0.00009041 RMS(Int)=  3.62767680 XScale=  0.99899217
 RedQX1 iteration    15 Try  1 RMS(Cart)=  0.00001808 RMS(Int)=  3.62764919 XScale=  0.99900412
 RedQX1 iteration    15 Try  2 RMS(Cart)=  0.00001808 RMS(Int)=  3.62765609 XScale=  0.99900113
 RedQX1 iteration    15 Try  3 RMS(Cart)=  0.00001808 RMS(Int)=  3.62766300 XScale=  0.99899815
 RedQX1 iteration    16 Try  1 RMS(Cart)=  0.00001808 RMS(Int)=  3.62766300 XScale=  0.99899815
 RedQX1 iteration    17 Try  1 RMS(Cart)=  0.00000362 RMS(Int)=  3.62765747 XScale=  0.99900054
 RedQX1 iteration    17 Try  2 RMS(Cart)=  0.00000362 RMS(Int)=  3.62765885 XScale=  0.99899994
 RedQX1 iteration    18 Try  1 RMS(Cart)=  0.00000362 RMS(Int)=  3.62765885 XScale=  0.99899994
 RedQX1 iteration    19 Try  1 RMS(Cart)=  0.00000072 RMS(Int)=  3.62765775 XScale=  0.99900042
 RedQX1 iteration    19 Try  2 RMS(Cart)=  0.00000072 RMS(Int)=  3.62765803 XScale=  0.99900030
 RedQX1 iteration    19 Try  3 RMS(Cart)=  0.00000072 RMS(Int)=  3.62765830 XScale=  0.99900018
 RedQX1 iteration    19 Try  4 RMS(Cart)=  0.00000072 RMS(Int)=  3.62765858 XScale=  0.99900006
 RedQX1 iteration    19 Try  5 RMS(Cart)=  0.00000072 RMS(Int)=  3.62765885 XScale=  0.99899994
 RedQX1 iteration    20 Try  1 RMS(Cart)=  0.00000072 RMS(Int)=  3.62765885 XScale=  0.99899994
 Old curvilinear step not converged, using linear step:
 SCX= 3.72D+01 DXMaxT= 4.94-324 SCLim= 0.00D+00 Fact= 0.00D+00
 RedCar/ORedCr failed for GTrans.
 Error termination via Lnk1e in /home1/apps/gaussian/16rA.03/g16/l101.exe at Sat Oct 22 00:25:22 2022.
 Job cpu time:       0 days  0 hours  0 minutes 31.4 seconds.
 Elapsed time:       0 days  0 hours  0 minutes  4.4 seconds.
 File lengths (MBytes):  RWF=      6 Int=      0 D2E=      0 Chk=      1 Scr=      1
