 Entering Gaussian System, Link 0=g16
 Initial command:
 /home1/apps/gaussian/16rA.03/g16/l1.exe "/tmp/Gau-31425.inp" -scrdir="/tmp/"
 Entering Link 1 = /home1/apps/gaussian/16rA.03/g16/l1.exe PID=     31427.
  
 Copyright (c) 1988,1990,1992,1993,1995,1998,2003,2009,2016,
            Gaussian, Inc.  All Rights Reserved.
  
 This is part of the Gaussian(R) 16 program.  It is based on
 the Gaussian(R) 09 system (copyright 2009, Gaussian, Inc.),
 the Gaussian(R) 03 system (copyright 2003, Gaussian, Inc.),
 the Gaussian(R) 98 system (copyright 1998, Gaussian, Inc.),
 the Gaussian(R) 94 system (copyright 1995, Gaussian, Inc.),
 the Gaussian 92(TM) system (copyright 1992, Gaussian, Inc.),
 the Gaussian 90(TM) system (copyright 1990, Gaussian, Inc.),
 the Gaussian 88(TM) system (copyright 1988, Gaussian, Inc.),
 the Gaussian 86(TM) system (copyright 1986, Carnegie Mellon
 University), and the Gaussian 82(TM) system (copyright 1983,
 Carnegie Mellon University). Gaussian is a federally registered
 trademark of Gaussian, Inc.
  
 This software contains proprietary and confidential information,
 including trade secrets, belonging to Gaussian, Inc.
  
 This software is provided under written license and may be
 used, copied, transmitted, or stored only in accord with that
 written license.
  
 The following legend is applicable only to US Government
 contracts under FAR:
  
                    RESTRICTED RIGHTS LEGEND
  
 Use, reproduction and disclosure by the US Government is
 subject to restrictions as set forth in subparagraphs (a)
 and (c) of the Commercial Computer Software - Restricted
 Rights clause in FAR 52.227-19.
  
 Gaussian, Inc.
 340 Quinnipiac St., Bldg. 40, Wallingford CT 06492
  
  
 ---------------------------------------------------------------
 Warning -- This program may not be used in any manner that
 competes with the business of Gaussian, Inc. or will provide
 assistance to any competitor of Gaussian, Inc.  The licensee
 of this program is prohibited from giving any competitor of
 Gaussian, Inc. access to this program.  By using this program,
 the user acknowledges that Gaussian, Inc. is engaged in the
 business of creating and licensing software in the field of
 computational chemistry and represents and warrants to the
 licensee that it is not a competitor of Gaussian, Inc. and that
 it will not use this program in any manner prohibited above.
 ---------------------------------------------------------------
  

 Cite this work as:
 Gaussian 16, Revision A.03,
 M. J. Frisch, G. W. Trucks, H. B. Schlegel, G. E. Scuseria, 
 M. A. Robb, J. R. Cheeseman, G. Scalmani, V. Barone, 
 G. A. Petersson, H. Nakatsuji, X. Li, M. Caricato, A. V. Marenich, 
 J. Bloino, B. G. Janesko, R. Gomperts, B. Mennucci, H. P. Hratchian, 
 J. V. Ortiz, A. F. Izmaylov, J. L. Sonnenberg, D. Williams-Young, 
 F. Ding, F. Lipparini, F. Egidi, J. Goings, B. Peng, A. Petrone, 
 T. Henderson, D. Ranasinghe, V. G. Zakrzewski, J. Gao, N. Rega, 
 G. Zheng, W. Liang, M. Hada, M. Ehara, K. Toyota, R. Fukuda, 
 J. Hasegawa, M. Ishida, T. Nakajima, Y. Honda, O. Kitao, H. Nakai, 
 T. Vreven, K. Throssell, J. A. Montgomery, Jr., J. E. Peralta, 
 F. Ogliaro, M. J. Bearpark, J. J. Heyd, E. N. Brothers, K. N. Kudin, 
 V. N. Staroverov, T. A. Keith, R. Kobayashi, J. Normand, 
 K. Raghavachari, A. P. Rendell, J. C. Burant, S. S. Iyengar, 
 J. Tomasi, M. Cossi, J. M. Millam, M. Klene, C. Adamo, R. Cammi, 
 J. W. Ochterski, R. L. Martin, K. Morokuma, O. Farkas, 
 J. B. Foresman, and D. J. Fox, Gaussian, Inc., Wallingford CT, 2016.
 
 ******************************************
 Gaussian 16:  ES64L-G16RevA.03 25-Dec-2016
                17-Feb-2023 
 ******************************************
 %Chk=checkpoint.chk
 %NProcShared=12
 Will use up to   12 processors via shared memory.
 -----------------------------------------------------
 #wB97XD Gen Opt=(QST3) SCRF=(Solvent=TetraHydroFuran)
 -----------------------------------------------------
 1/5=1,18=20,26=3,27=203,38=1/1,3;
 2/9=110,12=2,17=6,18=5,40=1/2;
 3/5=7,11=2,25=1,30=1,70=2201,71=1,72=20,74=-58/1,2,3;
 4//1;
 5/5=2,38=5,53=20/2;
 6/7=2,8=2,9=2,10=2,28=1/1;
 7//1,2,3,16;
 1/5=1,18=20,26=3,27=203/3(2);
 2/9=110/2;
 99//99;
 2/9=110/2;
 3/5=7,6=1,11=2,25=1,30=1,70=2205,71=1,72=20,74=-58,82=7/1,2,3;
 4/5=5,16=3,69=1/1;
 5/5=2,38=5,53=20/2;
 7//1,2,3,16;
 1/5=1,18=20,26=3,27=203/3(-5);
 2/9=110/2;
 6/7=2,8=2,9=2,10=2,19=2,28=1/1;
 99/9=1/99;
 ------------------------------------
 Anthracene Transition State Reactant
 ------------------------------------
 Symbolic Z-matrix:
 Charge =  0 Multiplicity = 1
 Mn                   -1.0194   -0.13282  -1.30041 
 C                    -1.95084   1.09527  -2.29845 
 O                    -2.50101   1.87539  -2.92239 
 C                    -1.94096  -1.55093  -2.01671 
 O                    -2.47772  -2.45176  -2.46467 
 C                     0.20025  -0.27236  -2.6431 
 N                     0.04927  -1.53221  -0.03083 
 C                     0.07866  -3.04556   1.8282 
 C                     1.46702  -3.1228    1.77993 
 C                     1.37634  -1.67638  -0.11513 
 H                    -0.49205  -3.5931    2.57846 
 H                     2.01871  -3.71611   2.51212 
 N                    -2.37065   0.02942   0.19031 
 C                    -3.16697   0.13023   1.0198 
 C                    -4.10539   0.2658    2.09209 
 C                    -3.6202    0.43566   3.39952 
 C                    -4.52704   0.57079   4.44399 
 C                    -5.48203   0.23058   1.82486 
 H                    -2.54534   0.46071   3.58681 
 H                    -5.82775   0.09615   0.79488 
 N                     0.05018   1.50245  -0.35369 
 C                     0.08073   3.37421   1.14383 
 C                     1.47006   3.42805   1.09346 
 H                    -0.49002   4.07266   1.75603 
 C                    -0.58809  -2.23239   0.92237 
 H                    -1.67251  -2.14107   0.96102 
 C                    -0.58735   2.39419   0.42298 
 H                    -1.67305   2.32336   0.46813 
 H                    -4.16287   0.70328   5.46409 
 O                     0.94147  -0.36186  -3.51126 
 C                     3.71034   0.05692   0.59661 
 C                     6.44285   0.00195   0.07986 
 C                     2.14993  -2.41932   0.78562 
 C                     3.63318  -2.42875   0.67238 
 C                     4.33237  -3.60918   0.65808 
 C                     5.74721  -3.62943   0.48325 
 C                     6.44286  -2.47015   0.28898 
 C                     5.76733  -1.20725   0.29051 
 C                     4.35206  -1.18133   0.52939 
 H                     3.79554  -4.55679   0.74485 
 H                     6.26618  -4.58974   0.47691 
 H                     7.52231  -2.48926   0.12265 
 C                     4.35394   1.25516   0.28141 
 C                     5.76945   1.23001   0.04342 
 C                     6.44775   2.46555  -0.21061 
 C                     5.75436   3.64152  -0.25402 
 C                     4.33929   3.65908  -0.08147 
 C                     3.63726   2.50702   0.16895 
 H                     7.52743   2.44868  -0.37582 
 H                     6.27529   4.58008  -0.45221 
 H                     3.80437   4.6056   -0.18931 
 C                     2.15352   2.52607   0.2752 
 H                     2.02229   4.15802   1.68899 
 C                     1.37923   1.61496  -0.45427 
 H                     1.87683   0.94259  -1.1522 
 H                     1.87309  -1.17143  -0.94303 
 C                    -5.89955   0.53687   4.18594 
 C                    -6.37363   0.36773   2.88435 
 H                    -7.44706   0.34214   2.68994 
 H                    -6.60706   0.64379   5.01079 
 Br                   -5.87537  -0.28615  -1.89241 
 H                     7.52454  -0.01473  -0.07653 
 H                     2.66679   0.08836   0.89635 
 
 Add virtual bond connecting atoms Br61       and H20        Dist= 5.13D+00.
 -----------------------------------
 Anthracene Transition State Product
 -----------------------------------
 Symbolic Z-matrix:
 Charge =  0 Multiplicity = 1
 Mn                   -1.44286   0.16026  -2.01412 
 C                    -2.20443   1.54882  -2.90891 
 O                    -2.68366   2.42731  -3.46349 
 C                    -2.21304  -1.07612  -3.10367 
 O                    -2.69804  -1.85971  -3.78172 
 C                    -0.01408   0.23546  -3.09485 
 N                    -0.60049  -1.44099  -0.81185 
 C                    -0.82342  -3.27125   0.71581 
 C                     0.55737  -3.36677   0.85296 
 C                     0.7252   -1.5913   -0.72767 
 H                    -1.48955  -3.94449   1.25661 
 H                     1.00241  -4.09964   1.52935 
 N                     0.0775   -0.17244   2.4041 
 C                    -1.05369  -0.19765   2.64732 
 C                    -2.45976  -0.23136   2.94445 
 C                    -3.12645  -1.4621    3.01383 
 C                    -4.49389  -1.48788   3.26678 
 C                    -3.15853   0.96659   3.1448 
 H                    -2.5722   -2.38909   2.86463 
 H                    -2.62937   1.91849   3.09601 
 N                    -0.59083   1.56154  -0.58857 
 C                    -0.80429   3.1413    1.19825 
 C                     0.5769    3.20654   1.34817 
 H                    -1.46646   3.7285    1.83564 
 C                    -1.3638   -2.28301  -0.09733 
 H                    -2.44255  -2.14076  -0.17604 
 C                    -1.34964   2.291     0.24463 
 H                    -2.42913   2.16919   0.14486 
 H                    -5.01736  -2.44419   3.31559 
 O                     0.86165   0.2873   -3.83871 
 C                     2.91235  -0.04746   0.58557 
 C                     5.69235  -0.04273   0.41158 
 C                     1.36924  -2.49754   0.12252 
 C                     2.85402  -2.5063    0.21569 
 C                     3.56205  -3.67493   0.08887 
 C                     4.98786  -3.68132   0.09599 
 C                     5.69088  -2.51399   0.19056 
 C                     5.00769  -1.26191   0.32192 
 C                     3.57322  -1.26107   0.38259 
 H                     3.02896  -4.61681  -0.06081 
 H                     5.51371  -4.63251  -0.00729 
 H                     6.783    -2.51728   0.16154 
 C                     3.58071   1.17889   0.56648 
 C                     5.01522   1.18024   0.5065 
 C                     5.70587   2.43375   0.56536 
 C                     5.00976   3.60611   0.64834 
 C                     3.58394   3.60941   0.64 
 C                     2.86897   2.43926   0.58848 
 H                     6.79801   2.43509   0.53708 
 H                     5.54131   4.55882   0.69009 
 H                     3.05653   4.56629   0.63458 
 C                     1.38429   2.45343   0.49431 
 H                     1.02578   3.82526   2.12808 
 C                     0.73572   1.68987  -0.48314 
 H                     1.34033   1.15471  -1.214 
 H                     1.33286  -0.9558   -1.37019 
 C                    -5.19354  -0.29487   3.45284 
 C                    -4.52569   0.92909   3.39758 
 H                    -5.07398   1.86057   3.54798 
 H                    -6.26798  -0.31941   3.64516 
 Br                   -3.72263   0.07153  -0.71897 
 H                     1.84487  -0.05936   0.78995 
 H                     6.78538  -0.04496   0.39399 
 
 Add virtual bond connecting atoms N7         and Mn1        Dist= 4.11D+00.
 Add virtual bond connecting atoms N21        and Mn1        Dist= 4.11D+00.
 Add virtual bond connecting atoms H11        and H19        Dist= 4.70D+00.
 Add virtual bond connecting atoms H24        and H20        Dist= 4.71D+00.
 Add virtual bond connecting atoms H62        and N13        Dist= 4.53D+00.
 -----------------------------------------
 Anthracene Transition State Initial Guess
 -----------------------------------------
 Symbolic Z-matrix:
 Charge =  0 Multiplicity = 1
 Mn                   -1.12114  -0.21347  -2.04511 
 C                    -1.88566   1.02732  -3.15208 
 O                    -2.21487   1.82148  -3.90908 
 C                    -1.82222  -1.63451  -2.96124 
 O                    -2.08812  -2.5483   -3.59968 
 C                     0.24738  -0.26876  -3.1711 
 N                    -0.19879  -1.7329   -0.79074 
 C                    -0.48946  -3.47435   0.82733 
 C                     0.86166  -3.42011   1.16184 
 C                     1.11146  -1.76058  -0.53329 
 H                    -1.1692   -4.16481   1.33176 
 H                     1.26184  -4.0548    1.95716 
 N                    -2.1276   -0.04883   0.06493 
 C                    -2.51886   0.10762   1.14058 
 C                    -3.04472   0.34205   2.45939 
 C                    -2.18101   0.64286   3.51727 
 C                    -2.71246   0.88284   4.78375 
 C                    -4.42868   0.278     2.66269 
 H                    -1.10682   0.68936   3.33886 
 H                    -5.0806    0.04286   1.82045 
 N                    -0.21972   1.5145   -1.02391 
 C                    -0.55013   3.42815   0.37652 
 C                     0.80275   3.45175   0.70157 
 H                    -1.2465    4.15157   0.80221 
 C                    -0.98198  -2.60748  -0.13796 
 H                    -2.04643  -2.5948   -0.38682 
 C                    -1.02144   2.44137  -0.47796 
 H                    -2.08477   2.37216  -0.71633 
 H                    -2.04929   1.12171   5.61493 
 O                     1.11432  -0.31124  -3.93029 
 C                     3.16296   0.04      0.74945 
 C                     5.94272   0.07661   0.94283 
 C                     1.70258  -2.54534   0.46692 
 C                     3.16639  -2.46198   0.74253 
 C                     3.90372  -3.61228   0.87716 
 C                     5.31815  -3.58023   1.07426 
 C                     5.98901  -2.39237   1.09196 
 C                     5.27675  -1.15556   0.94821 
 C                     3.84433  -1.18033   0.81971 
 H                     3.40627  -4.58264   0.79509 
 H                     5.86129  -4.52309   1.17944 
 H                     7.0773   -2.36158   1.20786 
 C                     3.82682   1.26722   0.63715 
 C                     5.25893   1.28548   0.7638 
 C                     5.95033   2.5419    0.71669 
 C                     5.25967   3.70258   0.52479 
 C                     3.84426   3.6827    0.33576 
 C                     3.12761   2.51233   0.37753 
 H                     7.03914   2.54774   0.83044 
 H                     5.78792   4.65916   0.48502 
 H                     3.32922   4.62163   0.11483 
 C                     1.66228   2.52601   0.10583 
 H                     1.18937   4.1827    1.41742 
 C                     1.08861   1.60923  -0.78604 
 H                     1.73256   0.92077  -1.3327 
 H                     1.745    -1.12433  -1.15288 
 C                    -4.08903   0.81975   4.99109 
 C                    -4.94491   0.51668   3.93521 
 H                    -6.02086   0.46712   4.10522 
 H                    -4.50091   1.00765   5.98851 
 Br                   -4.15534  -0.30026  -2.12 
 H                     7.03108   0.09409   1.06619 
 H                     2.07419   0.0354    0.77386 
 

 GradGradGradGradGradGradGradGradGradGradGradGradGradGradGradGradGradGrad
 Berny optimization.
 Initialization pass.
                           ----------------------------
                           !    Initial Parameters    !
                           ! (Angstroms and Degrees)  !
 --------------------------                            --------------------------
 ! Name  Definition         TS        Reactant Product Derivative Info.         !
 --------------------------------------------------------------------------------
 ! R1    R(1,2)             1.8301    1.8363    1.819  estimate D2E/DX2         !
 ! R2    R(1,4)             1.8303    1.8367    1.819  estimate D2E/DX2         !
 ! R3    R(1,6)             1.7731    1.8193    1.7931 estimate D2E/DX2         !
 ! R4    R(1,7)             2.1755    2.1708    2.1723 estimate D2E/DX2         !
 ! R5    R(1,13)            2.3436    2.0185    4.6843 estimate D2E/DX2         !
 ! R6    R(1,21)            2.2003    2.1713    2.173  estimate D2E/DX2         !
 ! R7    R(1,61)            3.0364    4.8943    2.6235 estimate D2E/DX2         !
 ! R8    R(2,3)             1.1455    1.1404    1.1441 estimate D2E/DX2         !
 ! R9    R(4,5)             1.146     1.1403    1.1441 estimate D2E/DX2         !
 ! R10   R(6,30)            1.1532    1.145     1.1502 estimate D2E/DX2         !
 ! R11   R(7,10)            1.3356    1.3375    1.3368 estimate D2E/DX2         !
 ! R12   R(7,25)            1.3433    1.3435    1.3425 estimate D2E/DX2         !
 ! R13   R(8,9)             1.393     1.3913    1.3909 estimate D2E/DX2         !
 ! R14   R(8,11)            1.0923    1.0901    1.0906 estimate D2E/DX2         !
 ! R15   R(8,25)            1.3877    1.3879    1.3892 estimate D2E/DX2         !
 ! R16   R(9,12)            1.0934    1.092     1.0921 estimate D2E/DX2         !
 ! R17   R(9,33)            1.3983    1.3964    1.3958 estimate D2E/DX2         !
 ! R18   R(10,33)           1.402     1.4006    1.3996 estimate D2E/DX2         !
 ! R19   R(10,56)           1.0909    1.0896    1.089  estimate D2E/DX2         !
 ! R20   R(11,19)           5.2531    4.6547    2.4854 estimate D2E/DX2         !
 ! R21   R(13,14)           1.1552    1.1543    1.1573 estimate D2E/DX2         !
 ! R22   R(13,62)           9.2144    9.8989    2.3962 estimate D2E/DX2         !
 ! R23   R(14,15)           1.439     1.4314    1.4375 estimate D2E/DX2         !
 ! R24   R(15,16)           1.3984    1.4049    1.4014 estimate D2E/DX2         !
 ! R25   R(15,18)           1.4003    1.4028    1.4013 estimate D2E/DX2         !
 ! R26   R(16,17)           1.3943    1.3898    1.3909 estimate D2E/DX2         !
 ! R27   R(16,19)           1.0899    1.0913    1.0903 estimate D2E/DX2         !
 ! R28   R(17,29)           1.0898    1.0912    1.0913 estimate D2E/DX2         !
 ! R29   R(17,57)           1.3935    1.397     1.3955 estimate D2E/DX2         !
 ! R30   R(18,20)           1.0907    1.0947    1.0902 estimate D2E/DX2         !
 ! R31   R(18,58)           1.3938    1.3915    1.3908 estimate D2E/DX2         !
 ! R32   R(20,24)           5.7113    6.7252    2.4934 estimate D2E/DX2         !
 ! R33   R(20,61)           4.0621    2.7148    4.3773 estimate D2E/DX2         !
 ! R34   R(21,27)           1.3416    1.3435    1.3424 estimate D2E/DX2         !
 ! R35   R(21,54)           1.3332    1.3376    1.3369 estimate D2E/DX2         !
 ! R36   R(22,23)           1.3916    1.3913    1.3908 estimate D2E/DX2         !
 ! R37   R(22,24)           1.0906    1.0901    1.0907 estimate D2E/DX2         !
 ! R38   R(22,27)           1.3878    1.3879    1.3892 estimate D2E/DX2         !
 ! R39   R(23,52)           1.3967    1.3965    1.3958 estimate D2E/DX2         !
 ! R40   R(23,53)           1.0937    1.092     1.092  estimate D2E/DX2         !
 ! R41   R(25,26)           1.0932    1.0889    1.0909 estimate D2E/DX2         !
 ! R42   R(27,28)           1.0919    1.0889    1.0909 estimate D2E/DX2         !
 ! R43   R(31,39)           1.3994    1.3963    1.3967 estimate D2E/DX2         !
 ! R44   R(31,43)           1.3998    1.3962    1.3968 estimate D2E/DX2         !
 ! R45   R(31,62)           3.8814    3.8738    1.0869 estimate D2E/DX2         !
 ! R46   R(31,63)           1.089     1.0862    3.8778 estimate D2E/DX2         !
 ! R47   R(32,38)           1.4006    1.401     1.4011 estimate D2E/DX2         !
 ! R48   R(32,44)           1.4003    1.401     1.4011 estimate D2E/DX2         !
 ! R49   R(32,62)           1.0955    1.0931    3.8661 estimate D2E/DX2         !
 ! R50   R(32,63)           3.8724    3.8643    1.0932 estimate D2E/DX2         !
 ! R51   R(33,34)           1.4919    1.4876    1.4877 estimate D2E/DX2         !
 ! R52   R(34,35)           1.3729    1.372     1.3723 estimate D2E/DX2         !
 ! R53   R(34,39)           1.452     1.4468    1.4477 estimate D2E/DX2         !
 ! R54   R(35,36)           1.4285    1.4257    1.4258 estimate D2E/DX2         !
 ! R55   R(35,40)           1.0935    1.0926    1.0926 estimate D2E/DX2         !
 ! R56   R(36,37)           1.3643    1.3659    1.366  estimate D2E/DX2         !
 ! R57   R(36,41)           1.0932    1.0916    1.0918 estimate D2E/DX2         !
 ! R58   R(37,38)           1.4345    1.4322    1.4324 estimate D2E/DX2         !
 ! R59   R(37,42)           1.0949    1.0924    1.0925 estimate D2E/DX2         !
 ! R60   R(38,39)           1.4384    1.4355    1.4358 estimate D2E/DX2         !
 ! R61   R(43,44)           1.4378    1.4356    1.4358 estimate D2E/DX2         !
 ! R62   R(43,48)           1.4514    1.4469    1.4476 estimate D2E/DX2         !
 ! R63   R(44,45)           1.4349    1.4322    1.4324 estimate D2E/DX2         !
 ! R64   R(45,46)           1.3642    1.3659    1.366  estimate D2E/DX2         !
 ! R65   R(45,49)           1.0948    1.0924    1.0925 estimate D2E/DX2         !
 ! R66   R(46,47)           1.4281    1.4257    1.4258 estimate D2E/DX2         !
 ! R67   R(46,50)           1.0935    1.0916    1.0918 estimate D2E/DX2         !
 ! R68   R(47,48)           1.373     1.3722    1.3723 estimate D2E/DX2         !
 ! R69   R(47,51)           1.0935    1.0926    1.0926 estimate D2E/DX2         !
 ! R70   R(48,52)           1.4904    1.4877    1.4877 estimate D2E/DX2         !
 ! R71   R(52,54)           1.4018    1.4006    1.3997 estimate D2E/DX2         !
 ! R72   R(54,55)           1.0897    1.0894    1.0891 estimate D2E/DX2         !
 ! R73   R(57,58)           1.3926    1.3955    1.3954 estimate D2E/DX2         !
 ! R74   R(57,60)           1.0954    1.092     1.0918 estimate D2E/DX2         !
 ! R75   R(58,59)           1.0904    1.0912    1.0913 estimate D2E/DX2         !
 ! A1    A(2,1,4)          93.6472   92.8602   92.6906 estimate D2E/DX2         !
 ! A2    A(2,1,6)          87.6761   89.4398   90.2928 estimate D2E/DX2         !
 ! A3    L(2,1,7,4,-1)    178.4113  181.5632  182.3854 estimate D2E/DX2         !
 ! A4    L(2,1,7,4,-2)    178.7306  182.4131  183.4865 estimate D2E/DX2         !
 ! A5    A(2,1,13)        108.5154   90.4629  130.8496 estimate D2E/DX2         !
 ! A6    A(2,1,21)         85.3788   89.035    89.6911 estimate D2E/DX2         !
 ! A7    A(2,1,61)         65.6079   56.7659   84.5395 estimate D2E/DX2         !
 ! A8    A(4,1,6)          87.3386   89.3883   90.279  estimate D2E/DX2         !
 ! A9    A(4,1,7)          84.7641   88.703    89.6949 estimate D2E/DX2         !
 ! A10   A(4,1,13)        109.919    90.8132  130.8505 estimate D2E/DX2         !
 ! A11   L(4,1,21,2,-1)   179.026   181.8953  182.3816 estimate D2E/DX2         !
 ! A12   L(4,1,21,2,-2)   182.4554  177.8035  176.5025 estimate D2E/DX2         !
 ! A13   A(4,1,61)         65.336    55.3068   84.5361 estimate D2E/DX2         !
 ! A14   A(6,1,7)          90.9824   92.9897   93.1816 estimate D2E/DX2         !
 ! A15   L(6,1,13,2,-1)   196.1915  179.9027  221.1424 estimate D2E/DX2         !
 ! A16   L(6,1,13,2,-2)   199.6008  180.197   245.2912 estimate D2E/DX2         !
 ! A17   A(6,1,21)         90.1733   92.827    93.2059 estimate D2E/DX2         !
 ! A18   L(6,1,61,2,-1)   153.284   146.2057  174.8323 estimate D2E/DX2         !
 ! A19   L(6,1,61,2,-2)   147.9715  133.7926  174.5395 estimate D2E/DX2         !
 ! A20   A(7,1,13)         73.2623   87.1023   45.5557 estimate D2E/DX2         !
 ! A21   A(7,1,21)         96.1539   89.3121   87.7196 estimate D2E/DX2         !
 ! A22   A(7,1,61)        114.7037  122.615    92.2245 estimate D2E/DX2         !
 ! A23   A(13,1,21)        72.7164   86.9744   45.554  estimate D2E/DX2         !
 ! A24   A(21,1,61)       116.3139  124.4079   92.2164 estimate D2E/DX2         !
 ! A25   L(1,2,3,18,-1)   187.0065  181.2299  179.5621 estimate D2E/DX2         !
 ! A26   L(1,2,3,22,-1)   179.8251  179.0518  179.5279 estimate D2E/DX2         !
 ! A27   L(1,2,3,18,-2)   175.0569  178.8291  179.7608 estimate D2E/DX2         !
 ! A28   L(1,2,3,22,-2)   171.5803  178.5473  180.1171 estimate D2E/DX2         !
 ! A29   L(1,4,5,8,-1)    179.6609  178.9781  179.5473 estimate D2E/DX2         !
 ! A30   L(1,4,5,8,-2)    189.5532  181.8662  179.8672 estimate D2E/DX2         !
 ! A31   L(1,6,30,10,-1)  181.3485  181.4747  182.6714 estimate D2E/DX2         !
 ! A32   L(1,6,30,10,-2)  178.7581  178.99    178.0594 estimate D2E/DX2         !
 ! A33   A(1,7,10)        122.7887  121.4044  120.1501 estimate D2E/DX2         !
 ! A34   A(1,7,25)        119.1917  121.1552  122.4403 estimate D2E/DX2         !
 ! A35   A(10,7,25)       117.6984  117.3369  117.3751 estimate D2E/DX2         !
 ! A36   A(9,8,11)        121.1511  121.2244  121.0019 estimate D2E/DX2         !
 ! A37   A(9,8,25)        119.1409  119.2911  119.5213 estimate D2E/DX2         !
 ! A38   A(11,8,25)       119.683   119.4687  119.4588 estimate D2E/DX2         !
 ! A39   A(8,9,12)        120.4696  120.7321  120.7784 estimate D2E/DX2         !
 ! A40   A(8,9,33)        119.2304  118.9955  118.8861 estimate D2E/DX2         !
 ! A41   A(12,9,33)       120.3     120.2701  120.331  estimate D2E/DX2         !
 ! A42   A(7,10,33)       124.2447  124.3771  124.5675 estimate D2E/DX2         !
 ! A43   A(7,10,56)       116.6259  116.7619  116.7806 estimate D2E/DX2         !
 ! A44   A(33,10,56)      119.1294  118.8603  118.6518 estimate D2E/DX2         !
 ! A45   A(8,11,19)        65.4789   86.7094  101.5699 estimate D2E/DX2         !
 ! A46   L(1,13,14,8,-1)  180.7585  181.4217  143.4264 estimate D2E/DX2         !
 ! A47   L(1,13,14,8,-2)  173.3812  180.9146  272.8095 estimate D2E/DX2         !
 ! A48   A(14,13,62)      103.495   135.1856  149.7131 estimate D2E/DX2         !
 ! A49   L(13,14,15,11,-1)  182.0425  178.6485  179.8378 estimate D2E/DX2       !
 ! A50   L(13,14,15,1,-1)  179.9159  179.3423  179.8053 estimate D2E/DX2        !
 ! A51   L(13,14,15,11,-2)  181.1932  177.655  180.1544 estimate D2E/DX2        !
 ! A52   L(13,14,15,1,-2)  149.6428  323.0409  179.8888 estimate D2E/DX2        !
 ! A53   A(14,15,16)      120.1741  118.8297  119.745  estimate D2E/DX2         !
 ! A54   A(14,15,18)      119.1294  119.8879  119.8197 estimate D2E/DX2         !
 ! A55   A(16,15,18)      120.6933  121.2822  120.4296 estimate D2E/DX2         !
 ! A56   A(15,16,17)      119.2582  119.0657  119.537  estimate D2E/DX2         !
 ! A57   A(15,16,19)      119.6088  120.1746  119.8713 estimate D2E/DX2         !
 ! A58   A(17,16,19)      121.1326  120.7597  120.591  estimate D2E/DX2         !
 ! A59   A(16,17,29)      119.9041  119.7748  119.7337 estimate D2E/DX2         !
 ! A60   A(16,17,57)      120.2573  119.9927  120.0872 estimate D2E/DX2         !
 ! A61   A(29,17,57)      119.8386  120.2326  120.1787 estimate D2E/DX2         !
 ! A62   A(15,18,20)      119.2408  119.4873  119.8693 estimate D2E/DX2         !
 ! A63   A(15,18,58)      119.3912  118.7694  119.546  estimate D2E/DX2         !
 ! A64   A(20,18,58)      121.368   121.7433  120.5838 estimate D2E/DX2         !
 ! A65   A(11,19,16)       90.6542  112.1661  147.3575 estimate D2E/DX2         !
 ! A66   A(18,20,24)       65.2495   62.7598  151.9875 estimate D2E/DX2         !
 ! A67   A(18,20,61)      129.1333  162.5838   63.2149 estimate D2E/DX2         !
 ! A68   A(1,21,27)       119.1182  121.2128  122.409  estimate D2E/DX2         !
 ! A69   A(1,21,54)       122.7295  121.3339  120.1792 estimate D2E/DX2         !
 ! A70   A(27,21,54)      117.6944  117.3326  117.3719 estimate D2E/DX2         !
 ! A71   A(23,22,24)      121.2196  121.2226  120.9754 estimate D2E/DX2         !
 ! A72   A(23,22,27)      119.0808  119.2873  119.5087 estimate D2E/DX2         !
 ! A73   A(24,22,27)      119.6772  119.4755  119.497  estimate D2E/DX2         !
 ! A74   A(22,23,52)      119.1712  119.0084  118.8945 estimate D2E/DX2         !
 ! A75   A(22,23,53)      120.5232  120.7383  120.7806 estimate D2E/DX2         !
 ! A76   A(52,23,53)      120.3052  120.2517  120.3201 estimate D2E/DX2         !
 ! A77   A(20,24,22)       91.2056   87.5038  100.821  estimate D2E/DX2         !
 ! A78   A(7,25,8)        122.5345  122.7164  122.4501 estimate D2E/DX2         !
 ! A79   A(7,25,26)       116.7134  116.9941  116.2352 estimate D2E/DX2         !
 ! A80   A(8,25,26)       120.7399  120.2893  121.3081 estimate D2E/DX2         !
 ! A81   A(21,27,22)      122.6047  122.7187  122.4637 estimate D2E/DX2         !
 ! A82   A(21,27,28)      116.6993  116.996   116.2248 estimate D2E/DX2         !
 ! A83   A(22,27,28)      120.6772  120.2851  121.3045 estimate D2E/DX2         !
 ! A84   A(39,31,43)      122.5227  122.5723  122.3093 estimate D2E/DX2         !
 ! A85   A(39,31,62)       61.4997   61.4914  118.8492 estimate D2E/DX2         !
 ! A86   A(39,31,63)      118.8131  118.7182   61.3666 estimate D2E/DX2         !
 ! A87   A(43,31,62)       61.4254   61.4953  118.8238 estimate D2E/DX2         !
 ! A88   A(43,31,63)      118.6618  118.7067   61.3697 estimate D2E/DX2         !
 ! A89   A(38,32,44)      121.8538  121.9166  121.8486 estimate D2E/DX2         !
 ! A90   A(38,32,62)      119.0772  119.0443   61.0678 estimate D2E/DX2         !
 ! A91   A(38,32,63)       61.0409   61.0778  119.0633 estimate D2E/DX2         !
 ! A92   A(44,32,62)      119.0617  119.0318   61.0645 estimate D2E/DX2         !
 ! A93   A(44,32,63)       61.0403   61.068   119.0833 estimate D2E/DX2         !
 ! A94   A(9,33,10)       116.8178  117.0675  116.9662 estimate D2E/DX2         !
 ! A95   A(9,33,34)       122.2227  122.5908  122.9607 estimate D2E/DX2         !
 ! A96   A(10,33,34)      120.9445  120.3387  120.073  estimate D2E/DX2         !
 ! A97   A(33,34,35)      119.8844  120.9546  120.9417 estimate D2E/DX2         !
 ! A98   A(33,34,39)      121.1497  119.8331  119.8661 estimate D2E/DX2         !
 ! A99   A(35,34,39)      118.9202  119.1791  119.1341 estimate D2E/DX2         !
 ! A100  A(34,35,36)      121.77    121.2786  121.2856 estimate D2E/DX2         !
 ! A101  A(34,35,40)      119.4589  119.6689  119.674  estimate D2E/DX2         !
 ! A102  A(36,35,40)      118.7313  119.0134  118.9947 estimate D2E/DX2         !
 ! A103  A(35,36,37)      120.5444  120.7171  120.7422 estimate D2E/DX2         !
 ! A104  A(35,36,41)      119.0713  119.0123  119.0173 estimate D2E/DX2         !
 ! A105  A(37,36,41)      120.3565  120.2457  120.2125 estimate D2E/DX2         !
 ! A106  A(36,37,38)      120.3475  120.5328  120.5232 estimate D2E/DX2         !
 ! A107  A(36,37,42)      120.9716  120.6705  120.6689 estimate D2E/DX2         !
 ! A108  A(38,37,42)      118.6793  118.7953  118.8069 estimate D2E/DX2         !
 ! A109  A(32,38,37)      121.5208  122.24    122.2362 estimate D2E/DX2         !
 ! A110  A(32,38,39)      119.2292  118.9991  119.0121 estimate D2E/DX2         !
 ! A111  A(37,38,39)      119.2472  118.758   118.7457 estimate D2E/DX2         !
 ! A112  A(31,39,34)      122.6653  122.1059  121.9443 estimate D2E/DX2         !
 ! A113  A(31,39,38)      118.3163  118.4984  118.6455 estimate D2E/DX2         !
 ! A114  A(34,39,38)      119.0077  119.389   119.4053 estimate D2E/DX2         !
 ! A115  A(31,43,44)      118.4535  118.4837  118.6513 estimate D2E/DX2         !
 ! A116  A(31,43,48)      122.5466  122.1247  121.9344 estimate D2E/DX2         !
 ! A117  A(44,43,48)      118.9924  119.3848  119.4097 estimate D2E/DX2         !
 ! A118  A(32,44,43)      119.121   119.0099  119.0034 estimate D2E/DX2         !
 ! A119  A(32,44,45)      121.6555  122.2187  122.2494 estimate D2E/DX2         !
 ! A120  A(43,44,45)      119.2206  118.7686  118.7409 estimate D2E/DX2         !
 ! A121  A(44,45,46)      120.3758  120.528   120.5213 estimate D2E/DX2         !
 ! A122  A(44,45,49)      118.7177  118.7904  118.817  estimate D2E/DX2         !
 ! A123  A(46,45,49)      120.905   120.6802  120.6609 estimate D2E/DX2         !
 ! A124  A(45,46,47)      120.5674  120.7068  120.7457 estimate D2E/DX2         !
 ! A125  A(45,46,50)      120.3206  120.2507  120.209  estimate D2E/DX2         !
 ! A126  A(47,46,50)      119.0889  119.0168  119.0169 estimate D2E/DX2         !
 ! A127  A(46,47,48)      121.679   121.3037  121.2822 estimate D2E/DX2         !
 ! A128  A(46,47,51)      118.7909  118.9924  118.9961 estimate D2E/DX2         !
 ! A129  A(48,47,51)      119.4886  119.663   119.6765 estimate D2E/DX2         !
 ! A130  A(43,48,47)      119.029   119.1567  119.1323 estimate D2E/DX2         !
 ! A131  A(43,48,52)      120.9393  119.9705  119.8668 estimate D2E/DX2         !
 ! A132  A(47,48,52)      119.9886  120.8346  120.9443 estimate D2E/DX2         !
 ! A133  A(23,52,48)      122.235   122.5636  122.9353 estimate D2E/DX2         !
 ! A134  A(23,52,54)      116.9377  117.0493  116.97   estimate D2E/DX2         !
 ! A135  A(48,52,54)      120.8206  120.3865  120.0947 estimate D2E/DX2         !
 ! A136  A(21,54,52)      124.1677  124.391   124.5567 estimate D2E/DX2         !
 ! A137  A(21,54,55)      116.4567  116.7506  116.7927 estimate D2E/DX2         !
 ! A138  A(52,54,55)      119.3756  118.8579  118.6503 estimate D2E/DX2         !
 ! A139  A(17,57,58)      120.2756  120.597   120.3067 estimate D2E/DX2         !
 ! A140  A(17,57,60)      119.9444  119.6479  119.8457 estimate D2E/DX2         !
 ! A141  A(58,57,60)      119.78    119.7552  119.8473 estimate D2E/DX2         !
 ! A142  A(18,58,57)      120.1241  120.2931  120.0864 estimate D2E/DX2         !
 ! A143  A(18,58,59)      120.0005  119.4952  119.7296 estimate D2E/DX2         !
 ! A144  A(57,58,59)      119.8754  120.2117  120.1834 estimate D2E/DX2         !
 ! A145  A(13,62,31)        1.5603    8.5014  148.3802 estimate D2E/DX2         !
 ! D1    D(4,1,7,10)      127.1505  118.0929  116.3527 estimate D2E/DX2         !
 ! D2    D(4,1,7,25)      -59.5124  -65.7047  -65.8409 estimate D2E/DX2         !
 ! D3    D(6,1,7,10)       39.9135   28.7733   26.0902 estimate D2E/DX2         !
 ! D4    D(6,1,7,25)     -146.7493 -155.0243 -156.1034 estimate D2E/DX2         !
 ! D5    D(13,1,7,10)    -120.2174 -151.027   -86.5137 estimate D2E/DX2         !
 ! D6    D(13,1,7,25)      53.1197   25.1754   91.2927 estimate D2E/DX2         !
 ! D7    D(21,1,7,10)     -50.3668  -64.0218  -66.9962 estimate D2E/DX2         !
 ! D8    D(21,1,7,25)     122.9704  112.1806  110.8102 estimate D2E/DX2         !
 ! D9    D(61,1,7,10)    -173.0758  164.4312 -159.1273 estimate D2E/DX2         !
 ! D10   D(61,1,7,25)       0.2613  -19.3665   18.679  estimate D2E/DX2         !
 ! D11   D(2,1,15,16)    -120.2459 -132.5668  117.3152 estimate D2E/DX2         !
 ! D12   D(2,1,15,18)      56.0809   46.8712   -7.0382 estimate D2E/DX2         !
 ! D13   D(4,1,15,16)     137.3415  134.5698    8.9434 estimate D2E/DX2         !
 ! D14   D(4,1,15,18)     -46.3317  -45.9921 -115.41   estimate D2E/DX2         !
 ! D15   D(7,1,15,16)      60.6661   45.9148  -62.8995 estimate D2E/DX2         !
 ! D16   D(7,1,15,18)    -123.0071 -134.6472  172.7471 estimate D2E/DX2         !
 ! D17   D(21,1,15,16)    -42.6636  -43.5417 -170.8879 estimate D2E/DX2         !
 ! D18   D(21,1,15,18)    133.6632  135.8964   64.7587 estimate D2E/DX2         !
 ! D19   D(2,1,21,27)      60.2054   64.9775   66.0092 estimate D2E/DX2         !
 ! D20   D(2,1,21,54)    -127.7434 -119.1227 -116.3481 estimate D2E/DX2         !
 ! D21   D(6,1,21,27)     147.8599  154.3689  156.2852 estimate D2E/DX2         !
 ! D22   D(6,1,21,54)     -40.0889  -29.7313  -26.0721 estimate D2E/DX2         !
 ! D23   D(7,1,21,27)    -121.1333 -112.6715 -110.6537 estimate D2E/DX2         !
 ! D24   D(7,1,21,54)      50.9178   63.2282   66.989  estimate D2E/DX2         !
 ! D25   D(13,1,21,27)    -50.8218  -25.5371  -91.1356 estimate D2E/DX2         !
 ! D26   D(13,1,21,54)    121.2294  150.3627   86.5071 estimate D2E/DX2         !
 ! D27   D(61,1,21,27)      0.3507   17.5031  -18.5141 estimate D2E/DX2         !
 ! D28   D(61,1,21,54)    172.4019 -166.5972  159.1286 estimate D2E/DX2         !
 ! D29   D(1,7,10,33)     166.6929  170.9989  173.1231 estimate D2E/DX2         !
 ! D30   D(1,7,10,56)     -13.3215   -8.6878   -6.7473 estimate D2E/DX2         !
 ! D31   D(25,7,10,33)     -6.738    -5.3429   -4.7922 estimate D2E/DX2         !
 ! D32   D(25,7,10,56)    173.2476  174.9705  175.3374 estimate D2E/DX2         !
 ! D33   D(1,7,25,8)     -170.3175 -174.1697 -177.2166 estimate D2E/DX2         !
 ! D34   D(1,7,25,26)       8.4204    5.9781    1.8568 estimate D2E/DX2         !
 ! D35   D(10,7,25,8)       3.3577    2.1817    0.6474 estimate D2E/DX2         !
 ! D36   D(10,7,25,26)   -177.9044 -177.6705  179.7208 estimate D2E/DX2         !
 ! D37   D(11,8,9,12)      -1.5106   -1.589    -1.8553 estimate D2E/DX2         !
 ! D38   D(11,8,9,33)     178.3852  178.9627  178.9172 estimate D2E/DX2         !
 ! D39   D(25,8,9,12)     176.6651  176.9571  176.5923 estimate D2E/DX2         !
 ! D40   D(25,8,9,33)      -3.4391   -2.4911   -2.6352 estimate D2E/DX2         !
 ! D41   D(9,8,11,19)      95.56    128.0158  111.5414 estimate D2E/DX2         !
 ! D42   D(25,8,11,19)    -82.606   -50.5278  -66.9071 estimate D2E/DX2         !
 ! D43   D(9,8,25,7)        1.6054    1.6357    2.9883 estimate D2E/DX2         !
 ! D44   D(9,8,25,26)    -177.0829 -178.5168 -176.0389 estimate D2E/DX2         !
 ! D45   D(11,8,25,7)     179.8084 -179.7923 -178.5399 estimate D2E/DX2         !
 ! D46   D(11,8,25,26)      1.1201    0.0552    2.4328 estimate D2E/DX2         !
 ! D47   D(8,9,33,10)       0.4383   -0.3199   -1.0696 estimate D2E/DX2         !
 ! D48   D(8,9,33,34)    -178.1667  179.0584  179.0325 estimate D2E/DX2         !
 ! D49   D(12,9,33,10)   -179.6657 -179.7707  179.6995 estimate D2E/DX2         !
 ! D50   D(12,9,33,34)      1.7293   -0.3925   -0.1985 estimate D2E/DX2         !
 ! D51   D(7,10,33,9)       4.8562    4.4392    5.015  estimate D2E/DX2         !
 ! D52   D(7,10,33,34)   -176.5199 -174.9538 -175.0839 estimate D2E/DX2         !
 ! D53   D(56,10,33,9)   -175.1291 -175.8802 -175.1168 estimate D2E/DX2         !
 ! D54   D(56,10,33,34)     3.4949    4.7267    4.7842 estimate D2E/DX2         !
 ! D55   D(8,11,19,16)    142.3815  117.7639   53.3578 estimate D2E/DX2         !
 ! D56   D(62,13,15,16)     6.1738    0.4233   89.7844 estimate D2E/DX2         !
 ! D57   D(62,13,15,18)  -175.3985 -179.8178  -89.249  estimate D2E/DX2         !
 ! D58   D(14,13,62,31)     4.918     1.3918 -178.9573 estimate D2E/DX2         !
 ! D59   D(14,15,16,17)   179.2121  179.857  -178.3155 estimate D2E/DX2         !
 ! D60   D(14,15,16,19)    -0.5754   -0.1263    1.3773 estimate D2E/DX2         !
 ! D61   D(18,15,16,17)    -0.1347    0.0027    0.8132 estimate D2E/DX2         !
 ! D62   D(18,15,16,19)  -179.9222 -179.9806 -179.494  estimate D2E/DX2         !
 ! D63   D(14,15,18,20)     0.5559    0.1848   -1.3207 estimate D2E/DX2         !
 ! D64   D(14,15,18,58)  -179.3944 -179.8524  178.3373 estimate D2E/DX2         !
 ! D65   D(16,15,18,20)   179.9095 -179.9624  179.5513 estimate D2E/DX2         !
 ! D66   D(16,15,18,58)    -0.0408    0.0003   -0.7907 estimate D2E/DX2         !
 ! D67   D(15,16,17,29)  -179.7812  179.998   179.6371 estimate D2E/DX2         !
 ! D68   D(15,16,17,57)     0.158    -0.0077   -0.1502 estimate D2E/DX2         !
 ! D69   D(19,16,17,29)     0.003    -0.0189   -0.0534 estimate D2E/DX2         !
 ! D70   D(19,16,17,57)   179.9422  179.9755 -179.8408 estimate D2E/DX2         !
 ! D71   D(15,16,19,11)   -54.8283  -64.5372  -76.5178 estimate D2E/DX2         !
 ! D72   D(17,16,19,11)   125.3883  115.4798  103.1717 estimate D2E/DX2         !
 ! D73   D(16,17,57,58)    -0.006     0.0098   -0.5324 estimate D2E/DX2         !
 ! D74   D(16,17,57,60)   179.9051 -179.988   179.6298 estimate D2E/DX2         !
 ! D75   D(29,17,57,58)   179.9332 -179.9959  179.6812 estimate D2E/DX2         !
 ! D76   D(29,17,57,60)    -0.1557    0.0063   -0.1566 estimate D2E/DX2         !
 ! D77   D(15,18,20,24)   -49.2003  -39.6752   72.2844 estimate D2E/DX2         !
 ! D78   D(15,18,20,61)    -7.9142    2.2233   79.8547 estimate D2E/DX2         !
 ! D79   D(58,18,20,24)   130.7489  140.3632 -107.37   estimate D2E/DX2         !
 ! D80   D(58,18,20,61)   172.035  -177.7383  -99.7997 estimate D2E/DX2         !
 ! D81   D(15,18,58,57)     0.1942    0.0017    0.1052 estimate D2E/DX2         !
 ! D82   D(15,18,58,59)  -179.8593  179.9964 -179.6257 estimate D2E/DX2         !
 ! D83   D(20,18,58,57)  -179.755   179.9635  179.7607 estimate D2E/DX2         !
 ! D84   D(20,18,58,59)     0.1915   -0.0418    0.0298 estimate D2E/DX2         !
 ! D85   D(18,20,24,22)    94.5213  118.348   -46.9348 estimate D2E/DX2         !
 ! D86   D(1,21,27,22)    168.4688  173.7347  176.964  estimate D2E/DX2         !
 ! D87   D(1,21,27,28)     -9.964    -6.4186   -2.0847 estimate D2E/DX2         !
 ! D88   D(54,21,27,22)    -3.9816   -2.3232   -0.7414 estimate D2E/DX2         !
 ! D89   D(54,21,27,28)   177.5856  177.5235 -179.79   estimate D2E/DX2         !
 ! D90   D(1,21,54,52)   -165.1908 -170.7064 -172.9049 estimate D2E/DX2         !
 ! D91   D(1,21,54,55)     14.9087    9.0522    6.903  estimate D2E/DX2         !
 ! D92   D(27,21,54,52)     6.9672    5.3464    4.8541 estimate D2E/DX2         !
 ! D93   D(27,21,54,55)  -172.9333 -174.895  -175.338  estimate D2E/DX2         !
 ! D94   D(24,22,23,52)  -178.4201 -178.8661 -178.9497 estimate D2E/DX2         !
 ! D95   D(24,22,23,53)     1.824     1.5972    1.8437 estimate D2E/DX2         !
 ! D96   D(27,22,23,52)     3.3057    2.5283    2.6426 estimate D2E/DX2         !
 ! D97   D(27,22,23,53)  -176.4502 -177.0084 -176.5639 estimate D2E/DX2         !
 ! D98   D(23,22,24,20)  -135.7371 -167.1236 -114.2662 estimate D2E/DX2         !
 ! D99   D(27,22,24,20)    42.5269   11.4793   64.1416 estimate D2E/DX2         !
 ! D100  D(23,22,27,21)    -1.0288   -1.5128   -2.9271 estimate D2E/DX2         !
 ! D101  D(23,22,27,28)   177.3434  178.6454  176.0741 estimate D2E/DX2         !
 ! D102  D(24,22,27,21)  -179.33    179.8569  178.6415 estimate D2E/DX2         !
 ! D103  D(24,22,27,28)    -0.9579    0.0151   -2.3573 estimate D2E/DX2         !
 ! D104  D(22,23,52,48)   178.4009 -179.5503 -179.0167 estimate D2E/DX2         !
 ! D105  D(22,23,52,54)    -0.6619    0.1582    1.0323 estimate D2E/DX2         !
 ! D106  D(53,23,52,48)    -1.8427   -0.0113    0.1935 estimate D2E/DX2         !
 ! D107  D(53,23,52,54)   179.0945  179.6972 -179.7574 estimate D2E/DX2         !
 ! D108  D(43,31,39,34)  -170.8983 -171.0588 -171.1073 estimate D2E/DX2         !
 ! D109  D(43,31,39,38)     7.8983    7.9929    8.0804 estimate D2E/DX2         !
 ! D110  D(62,31,39,34)  -178.2889 -178.5638   10.4416 estimate D2E/DX2         !
 ! D111  D(62,31,39,38)     0.5078    0.4878 -170.3707 estimate D2E/DX2         !
 ! D112  D(63,31,39,34)     8.5302    8.319  -178.7139 estimate D2E/DX2         !
 ! D113  D(63,31,39,38)  -172.6732 -172.6293    0.4738 estimate D2E/DX2         !
 ! D114  D(39,31,43,44)    -7.8049   -8.0368   -8.1047 estimate D2E/DX2         !
 ! D115  D(39,31,43,48)   171.187   171.0122  171.1092 estimate D2E/DX2         !
 ! D116  D(62,31,43,44)    -0.409    -0.532   170.3468 estimate D2E/DX2         !
 ! D117  D(62,31,43,48)   178.5828  178.517   -10.4393 estimate D2E/DX2         !
 ! D118  D(63,31,43,44)   172.7659  172.5853   -0.4984 estimate D2E/DX2         !
 ! D119  D(63,31,43,48)    -8.2423   -8.3657  178.7155 estimate D2E/DX2         !
 ! D120  D(39,31,62,13)    87.3444   86.7475   89.3766 estimate D2E/DX2         !
 ! D121  D(43,31,62,13)   -85.5612  -86.0571  -89.1292 estimate D2E/DX2         !
 ! D122  D(44,32,38,37)   178.0968  178.0761  178.3863 estimate D2E/DX2         !
 ! D123  D(44,32,38,39)    -2.5196   -2.5547   -2.5202 estimate D2E/DX2         !
 ! D124  D(62,32,38,37)    -0.9106   -0.9271 -175.4289 estimate D2E/DX2         !
 ! D125  D(62,32,38,39)   178.473   178.4421    3.6647 estimate D2E/DX2         !
 ! D126  D(63,32,38,37)  -176.3646 -176.3626   -0.8107 estimate D2E/DX2         !
 ! D127  D(63,32,38,39)     3.019     3.0066  178.2828 estimate D2E/DX2         !
 ! D128  D(38,32,44,43)     2.6215    2.5098    2.496  estimate D2E/DX2         !
 ! D129  D(38,32,44,45)  -177.9941 -178.1172 -178.4259 estimate D2E/DX2         !
 ! D130  D(62,32,44,43)  -178.3709 -178.4869   -3.689  estimate D2E/DX2         !
 ! D131  D(62,32,44,45)     1.0135    0.8861  175.3891 estimate D2E/DX2         !
 ! D132  D(63,32,44,43)    -2.9171   -3.052  -178.3071 estimate D2E/DX2         !
 ! D133  D(63,32,44,45)   176.4673  176.3211    0.771  estimate D2E/DX2         !
 ! D134  D(9,33,34,35)     45.3388   51.0888   50.1007 estimate D2E/DX2         !
 ! D135  D(9,33,34,39)   -137.1472 -131.0271 -132.6936 estimate D2E/DX2         !
 ! D136  D(10,33,34,35)  -133.2096 -129.5527 -129.7941 estimate D2E/DX2         !
 ! D137  D(10,33,34,39)    44.3044   48.3314   47.4115 estimate D2E/DX2         !
 ! D138  D(33,34,35,36)   176.797   176.8502  176.1599 estimate D2E/DX2         !
 ! D139  D(33,34,35,40)    -0.8811   -0.8529   -1.356  estimate D2E/DX2         !
 ! D140  D(39,34,35,36)    -0.7724   -1.0475   -1.0659 estimate D2E/DX2         !
 ! D141  D(39,34,35,40)  -178.4505 -178.7507 -178.5818 estimate D2E/DX2         !
 ! D142  D(33,34,39,31)     5.218     5.0696    6.0886 estimate D2E/DX2         !
 ! D143  D(33,34,39,38)  -173.5707 -173.9738 -173.0931 estimate D2E/DX2         !
 ! D144  D(35,34,39,31)  -177.2445 -177.0086 -176.6552 estimate D2E/DX2         !
 ! D145  D(35,34,39,38)     3.9668    3.9479    4.1631 estimate D2E/DX2         !
 ! D146  D(34,35,36,37)    -2.1121   -1.7539   -1.9335 estimate D2E/DX2         !
 ! D147  D(34,35,36,41)   179.7983 -179.946   179.9868 estimate D2E/DX2         !
 ! D148  D(40,35,36,37)   175.5824  175.9639  175.5989 estimate D2E/DX2         !
 ! D149  D(40,35,36,41)    -2.5073   -2.2281   -2.4808 estimate D2E/DX2         !
 ! D150  D(35,36,37,38)     1.6682    1.5673    1.7411 estimate D2E/DX2         !
 ! D151  D(35,36,37,42)  -177.8674 -177.994  -177.8964 estimate D2E/DX2         !
 ! D152  D(41,36,37,38)   179.7332  179.737   179.7978 estimate D2E/DX2         !
 ! D153  D(41,36,37,42)     0.1976    0.1757    0.1604 estimate D2E/DX2         !
 ! D154  D(36,37,38,32)  -179.0337 -179.2627 -179.5119 estimate D2E/DX2         !
 ! D155  D(36,37,38,39)     1.5828    1.3667    1.3922 estimate D2E/DX2         !
 ! D156  D(42,37,38,32)     0.5124    0.3067    0.1322 estimate D2E/DX2         !
 ! D157  D(42,37,38,39)  -178.871  -179.0639 -178.9637 estimate D2E/DX2         !
 ! D158  D(32,38,39,31)    -2.6185   -2.5673   -2.6519 estimate D2E/DX2         !
 ! D159  D(32,38,39,34)   176.2232  176.5107  176.5569 estimate D2E/DX2         !
 ! D160  D(37,38,39,31)   176.7793  176.824   176.4737 estimate D2E/DX2         !
 ! D161  D(37,38,39,34)    -4.379    -4.0979   -4.3176 estimate D2E/DX2         !
 ! D162  D(31,43,44,32)     2.4161    2.6566    2.6995 estimate D2E/DX2         !
 ! D163  D(31,43,44,45)  -176.9835 -176.7383 -176.4112 estimate D2E/DX2         !
 ! D164  D(48,43,44,32)  -176.6123 -176.4191 -176.5346 estimate D2E/DX2         !
 ! D165  D(48,43,44,45)     3.9881    4.186     4.3546 estimate D2E/DX2         !
 ! D166  D(31,43,48,47)   177.3479  176.9457  176.5563 estimate D2E/DX2         !
 ! D167  D(31,43,48,52)    -5.0398   -5.2827   -6.1537 estimate D2E/DX2         !
 ! D168  D(44,43,48,47)    -3.6654   -4.0136   -4.2356 estimate D2E/DX2         !
 ! D169  D(44,43,48,52)   173.9468  173.758   173.0544 estimate D2E/DX2         !
 ! D170  D(32,44,45,46)   179.1981  179.2214  179.5474 estimate D2E/DX2         !
 ! D171  D(32,44,45,49)    -0.3764   -0.3466   -0.1163 estimate D2E/DX2         !
 ! D172  D(43,44,45,46)    -1.4181   -1.4041   -1.3722 estimate D2E/DX2         !
 ! D173  D(43,44,45,49)   179.0074  179.0279  178.9641 estimate D2E/DX2         !
 ! D174  D(44,45,46,47)    -1.5211   -1.6024   -1.7832 estimate D2E/DX2         !
 ! D175  D(44,45,46,50)  -179.7532 -179.7387 -179.8274 estimate D2E/DX2         !
 ! D176  D(49,45,46,47)   178.0439  177.9574  177.8742 estimate D2E/DX2         !
 ! D177  D(49,45,46,50)    -0.1882   -0.1789   -0.1699 estimate D2E/DX2         !
 ! D178  D(45,46,47,48)     1.8727    1.8123    1.9391 estimate D2E/DX2         !
 ! D179  D(45,46,47,51)  -175.77   -175.853  -175.6076 estimate D2E/DX2         !
 ! D180  D(50,46,47,48)  -179.8736  179.9713 -179.9938 estimate D2E/DX2         !
 ! D181  D(50,46,47,51)     2.4836    2.306     2.4595 estimate D2E/DX2         !
 ! D182  D(46,47,48,43)     0.7802    1.0412    1.1177 estimate D2E/DX2         !
 ! D183  D(46,47,48,52)  -176.8553 -176.7106 -176.1422 estimate D2E/DX2         !
 ! D184  D(51,47,48,43)   178.4069  178.691   178.648  estimate D2E/DX2         !
 ! D185  D(51,47,48,52)     0.7714    0.9392    1.388  estimate D2E/DX2         !
 ! D186  D(43,48,52,23)   135.1717  131.8205  132.61   estimate D2E/DX2         !
 ! D187  D(43,48,52,54)   -45.8013  -47.8786  -47.4405 estimate D2E/DX2         !
 ! D188  D(47,48,52,23)   -47.2388  -50.4459  -50.15   estimate D2E/DX2         !
 ! D189  D(47,48,52,54)   131.7882  129.855   129.7995 estimate D2E/DX2         !
 ! D190  D(23,52,54,21)    -4.6741   -4.2914   -5.0121 estimate D2E/DX2         !
 ! D191  D(23,52,54,55)   175.2236  175.9547  175.1833 estimate D2E/DX2         !
 ! D192  D(48,52,54,21)   176.249   175.4238  175.0354 estimate D2E/DX2         !
 ! D193  D(48,52,54,55)    -3.8532   -4.3301   -4.7691 estimate D2E/DX2         !
 ! D194  D(17,57,58,18)    -0.1721   -0.0068    0.5552 estimate D2E/DX2         !
 ! D195  D(17,57,58,59)   179.8813  179.9986 -179.7151 estimate D2E/DX2         !
 ! D196  D(60,57,58,18)   179.9166  179.991  -179.607  estimate D2E/DX2         !
 ! D197  D(60,57,58,59)    -0.0299   -0.0036    0.1226 estimate D2E/DX2         !
 --------------------------------------------------------------------------------
 Trust Radius=3.00D-01 FncErr=1.00D-07 GrdErr=1.00D-06 EigMax=2.50D+02 EigMin=1.00D-04
 Number of steps in this run=    378 maximum allowed number of steps=    378.
 Search for a saddle point of order  1.
 GradGradGradGradGradGradGradGradGradGradGradGradGradGradGradGradGradGrad

 Stoichiometry    C34H21BrMnN3O3
 Framework group  C1[X(C34H21BrMnN3O3)]
 Deg. of freedom   183
 Full point group                 C1      NOp   1
 Largest Abelian subgroup         C1      NOp   1
 Largest concise Abelian subgroup C1      NOp   1
                         Standard orientation:                         
 ---------------------------------------------------------------------
 Center     Atomic      Atomic             Coordinates (Angstroms)
 Number     Number       Type             X           Y           Z
 ---------------------------------------------------------------------
      1         25           0       -1.532507   -1.644600   -0.543519
      2          6           0       -2.441596   -2.019729   -2.086978
      3          8           0       -2.871869   -2.324369   -3.103924
      4          6           0       -2.362766   -2.971011    0.405934
      5          8           0       -2.720639   -3.892507    0.985677
      6          6           0       -0.338416   -2.858854   -1.036963
      7          7           0       -0.447379   -1.274361    1.305342
      8          6           0       -0.512085   -0.511365    3.574466
      9          6           0        0.873107   -0.365015    3.588588
     10          6           0        0.886045   -1.226216    1.364157
     11          1           0       -1.115997   -0.258118    4.448754
     12          1           0        1.379747    0.031533    4.472647
     13          7           0       -2.227718    0.452306    0.238770
     14          6           0       -2.461252    1.535678    0.564901
     15          6           0       -2.793084    2.887833    0.928629
     16          6           0       -1.786355    3.851299    1.046225
     17          6           0       -2.131142    5.159491    1.383521
     18          6           0       -4.134272    3.224979    1.148430
     19          1           0       -0.748309    3.569746    0.869990
     20          1           0       -4.900401    2.455050    1.048857
     21          7           0       -0.487708   -0.121503   -1.739276
     22          6           0       -0.607440    1.981471   -2.877520
     23          6           0        0.778012    2.106256   -2.839601
     24          1           0       -1.233104    2.758106   -3.318948
     25          6           0       -1.133339   -0.951348    2.414172
     26          1           0       -2.222311   -1.030245    2.358823
     27          6           0       -1.199685    0.862179   -2.309682
     28          1           0       -2.286393    0.758267   -2.286373
     29          1           0       -1.355431    5.919569    1.474490
     30          8           0        0.411468   -3.672430   -1.361828
     31          6           0        3.106727    0.411684    0.146776
     32          6           0        5.885840    0.236700    0.038573
     33          6           0        1.610207   -0.733378    2.458864
     34          6           0        3.098680   -0.642533    2.415810
     35          6           0        3.842857   -1.099739    3.475119
     36          6           0        5.271057   -1.094466    3.448840
     37          6           0        5.942565   -0.669084    2.340004
     38          6           0        5.222278   -0.187141    1.196950
     39          6           0        3.786053   -0.125366    1.246097
     40          1           0        3.334731   -1.514623    4.350042
     41          1           0        5.819694   -1.465848    4.318387
     42          1           0        7.036395   -0.694582    2.299377
     43          6           0        3.752972    0.737635   -1.051357
     44          6           0        5.188595    0.671514   -1.095342
     45          6           0        5.871501    1.064673   -2.294474
     46          6           0        5.165415    1.468647   -3.389583
     47          6           0        3.737437    1.475848   -3.370943
     48          6           0        3.029142    1.117227   -2.250764
     49          1           0        6.965430    1.026720   -2.313358
     50          1           0        5.686625    1.764228   -4.304265
     51          1           0        3.200128    1.737891   -4.286528
     52          6           0        1.540130    1.070722   -2.294116
     53          1           0        1.265633    3.004937   -3.227923
     54          6           0        0.841547   -0.039445   -1.799644
     55          1           0        1.398248   -0.903292   -1.437243
     56          1           0        1.427610   -1.599582    0.493881
     57          6           0       -3.464445    5.499697    1.603712
     58          6           0       -4.463137    4.536054    1.488560
     59          1           0       -5.504140    4.809008    1.664184
     60          1           0       -3.729382    6.528636    1.869963
     61         35           0       -4.546809   -1.350830   -0.326377
     62          1           0        6.980748    0.212319    0.013125
     63          1           0        2.032512    0.574299    0.221871
 ---------------------------------------------------------------------
 Rotational constants (GHZ):           0.0954563           0.0532295           0.0503037
 General basis read from cards:  (5D, 7F)
 There are   802 symmetry adapted cartesian basis functions of A   symmetry.
 There are   751 symmetry adapted basis functions of A   symmetry.
   751 basis functions,  1339 primitive gaussians,   802 cartesian basis functions
   165 alpha electrons      165 beta electrons
       nuclear repulsion energy      6052.2954882649 Hartrees.
 NAtoms=   63 NActive=   63 NUniq=   63 SFac= 1.00D+00 NAtFMM=   60 NAOKFM=T Big=T
 Integral buffers will be    131072 words long.
 Raffenetti 2 integral format.
 Two-electron integral symmetry is turned on.
 Nuclear repulsion after empirical dispersion term =     6052.2307557773 Hartrees.
 ------------------------------------------------------------------------------
 Polarizable Continuum Model (PCM)
 =================================
 Model                : PCM.
 Atomic radii         : UFF (Universal Force Field).
 Polarization charges : Total charges.
 Charge compensation  : None.
 Solution method      : On-the-fly selection.
 Cavity type          : Scaled VdW (van der Waals Surface) (Alpha=1.100).
 Cavity algorithm     : GePol (No added spheres)
                        Default sphere list used, NSphG=   63.
                        Lebedev-Laikov grids with approx.  5.0 points / Ang**2.
                        Smoothing algorithm: York/Karplus (Gamma=1.0000).
                        Polarization charges: spherical gaussians, with
                                              point-specific exponents (IZeta= 3).
                        Self-potential: point-specific (ISelfS= 7).
                        Self-field    : sphere-specific E.n sum rule (ISelfD= 2).
 1st derivatives      : Analytical E(r).r(x)/FMM algorithm (CHGder, D1EAlg=3).
                        Cavity 1st derivative terms included.
 Solvent              : TetraHydroFuran, Eps=   7.425700 Eps(inf)=   1.974025
 ------------------------------------------------------------------------------
 One-electron integrals computed using PRISM.
 PrsmSu:  requested number of processors reduced to:  11 ShMem   1 Linda.
 NBasis=   751 RedAO= T EigKep=  2.29D-04  NBF=   751
 NBsUse=   751 1.00D-06 EigRej= -1.00D+00 NBFU=   751
 ExpMin= 3.93D-02 ExpMax= 2.77D+05 ExpMxC= 1.70D+04 IAcc=3 IRadAn=         5 AccDes= 0.00D+00
 Harris functional with IExCor= 4639 and IRadAn=       5 diagonalized for initial guess.
 HarFok:  IExCor= 4639 AccDes= 0.00D+00 IRadAn=         5 IDoV= 1 UseB2=F ITyADJ=14
 ICtDFT=  3500011 ScaDFX=  1.000000  1.000000  1.000000  1.000000
 FoFCou: FMM=F IPFlag=           0 FMFlag=      100000 FMFlg1=        2001
         NFxFlg=           0 DoJE=T BraDBF=F KetDBF=T FulRan=T
         wScrn=  0.000000 ICntrl=       500 IOpCl=  0 I1Cent=   200000004 NGrid=           0
         NMat0=    1 NMatS0=      1 NMatT0=    0 NMatD0=    1 NMtDS0=    0 NMtDT0=    0
 Petite list used in FoFCou.
 Requested convergence on RMS density matrix=1.00D-08 within 128 cycles.
 Requested convergence on MAX density matrix=1.00D-06.
 Requested convergence on             energy=1.00D-06.
 No special actions if energy rises.
 CoulSu:  requested number of processors reduced to:   9 ShMem   1 Linda.
 Inv3:  Mode=1 IEnd=    67887147.
 Iteration    1 A*A^-1 deviation from unit magnitude is 3.77D-15 for   4368.
 Iteration    1 A*A^-1 deviation from orthogonality  is 3.21D-15 for   2923   2764.
 Iteration    1 A^-1*A deviation from unit magnitude is 4.22D-15 for   1634.
 Iteration    1 A^-1*A deviation from orthogonality  is 2.14D-15 for   2219    754.
 CoulSu:  requested number of processors reduced to:   9 ShMem   1 Linda.
 CoulSu:  requested number of processors reduced to:   9 ShMem   1 Linda.
 Error on total polarization charges =  0.02053
 SCF Done:  E(RwB97XD) =  -5421.43090584     A.U. after   20 cycles
            NFock= 20  Conv=0.50D-08     -V/T= 2.0041

 **********************************************************************

            Population analysis using the SCF density.

 **********************************************************************

 Orbital symmetries:
       Occupied  (A) (A) (A) (A) (A) (A) (A) (A) (A) (A) (A) (A)
                 (A) (A) (A) (A) (A) (A) (A) (A) (A) (A) (A) (A)
                 (A) (A) (A) (A) (A) (A) (A) (A) (A) (A) (A) (A)
                 (A) (A) (A) (A) (A) (A) (A) (A) (A) (A) (A) (A)
                 (A) (A) (A) (A) (A) (A) (A) (A) (A) (A) (A) (A)
                 (A) (A) (A) (A) (A) (A) (A) (A) (A) (A) (A) (A)
                 (A) (A) (A) (A) (A) (A) (A) (A) (A) (A) (A) (A)
                 (A) (A) (A) (A) (A) (A) (A) (A) (A) (A) (A) (A)
                 (A) (A) (A) (A) (A) (A) (A) (A) (A) (A) (A) (A)
                 (A) (A) (A) (A) (A) (A) (A) (A) (A) (A) (A) (A)
                 (A) (A) (A) (A) (A) (A) (A) (A) (A) (A) (A) (A)
                 (A) (A) (A) (A) (A) (A) (A) (A) (A) (A) (A) (A)
                 (A) (A) (A) (A) (A) (A) (A) (A) (A) (A) (A) (A)
                 (A) (A) (A) (A) (A) (A) (A) (A) (A)
       Virtual   (A) (A) (A) (A) (A) (A) (A) (A) (A) (A) (A) (A)
                 (A) (A) (A) (A) (A) (A) (A) (A) (A) (A) (A) (A)
                 (A) (A) (A) (A) (A) (A) (A) (A) (A) (A) (A) (A)
                 (A) (A) (A) (A) (A) (A) (A) (A) (A) (A) (A) (A)
                 (A) (A) (A) (A) (A) (A) (A) (A) (A) (A) (A) (A)
                 (A) (A) (A) (A) (A) (A) (A) (A) (A) (A) (A) (A)
                 (A) (A) (A) (A) (A) (A) (A) (A) (A) (A) (A) (A)
                 (A) (A) (A) (A) (A) (A) (A) (A) (A) (A) (A) (A)
                 (A) (A) (A) (A) (A) (A) (A) (A) (A) (A) (A) (A)
                 (A) (A) (A) (A) (A) (A) (A) (A) (A) (A) (A) (A)
                 (A) (A) (A) (A) (A) (A) (A) (A) (A) (A) (A) (A)
                 (A) (A) (A) (A) (A) (A) (A) (A) (A) (A) (A) (A)
                 (A) (A) (A) (A) (A) (A) (A) (A) (A) (A) (A) (A)
                 (A) (A) (A) (A) (A) (A) (A) (A) (A) (A) (A) (A)
                 (A) (A) (A) (A) (A) (A) (A) (A) (A) (A) (A) (A)
                 (A) (A) (A) (A) (A) (A) (A) (A) (A) (A) (A) (A)
                 (A) (A) (A) (A) (A) (A) (A) (A) (A) (A) (A) (A)
                 (A) (A) (A) (A) (A) (A) (A) (A) (A) (A) (A) (A)
                 (A) (A) (A) (A) (A) (A) (A) (A) (A) (A) (A) (A)
                 (A) (A) (A) (A) (A) (A) (A) (A) (A) (A) (A) (A)
                 (A) (A) (A) (A) (A) (A) (A) (A) (A) (A) (A) (A)
                 (A) (A) (A) (A) (A) (A) (A) (A) (A) (A) (A) (A)
                 (A) (A) (A) (A) (A) (A) (A) (A) (A) (A) (A) (A)
                 (A) (A) (A) (A) (A) (A) (A) (A) (A) (A) (A) (A)
                 (A) (A) (A) (A) (A) (A) (A) (A) (A) (A) (A) (A)
                 (A) (A) (A) (A) (A) (A) (A) (A) (A) (A) (A) (A)
                 (A) (A) (A) (A) (A) (A) (A) (A) (A) (A) (A) (A)
                 (A) (A) (A) (A) (A) (A) (A) (A) (A) (A) (A) (A)
                 (A) (A) (A) (A) (A) (A) (A) (A) (A) (A) (A) (A)
                 (A) (A) (A) (A) (A) (A) (A) (A) (A) (A) (A) (A)
                 (A) (A) (A) (A) (A) (A) (A) (A) (A) (A) (A) (A)
                 (A) (A) (A) (A) (A) (A) (A) (A) (A) (A) (A) (A)
                 (A) (A) (A) (A) (A) (A) (A) (A) (A) (A) (A) (A)
                 (A) (A) (A) (A) (A) (A) (A) (A) (A) (A) (A) (A)
                 (A) (A) (A) (A) (A) (A) (A) (A) (A) (A) (A) (A)
                 (A) (A) (A) (A) (A) (A) (A) (A) (A) (A) (A) (A)
                 (A) (A) (A) (A) (A) (A) (A) (A) (A) (A) (A) (A)
                 (A) (A) (A) (A) (A) (A) (A) (A) (A) (A) (A) (A)
                 (A) (A) (A) (A) (A) (A) (A) (A) (A) (A) (A) (A)
                 (A) (A) (A) (A) (A) (A) (A) (A) (A) (A) (A) (A)
                 (A) (A) (A) (A) (A) (A) (A) (A) (A) (A) (A) (A)
                 (A) (A) (A) (A) (A) (A) (A) (A) (A) (A) (A) (A)
                 (A) (A) (A) (A) (A) (A) (A) (A) (A) (A) (A) (A)
                 (A) (A) (A) (A) (A) (A) (A) (A) (A) (A) (A) (A)
                 (A) (A) (A) (A) (A) (A) (A) (A) (A) (A) (A) (A)
                 (A) (A) (A) (A) (A) (A) (A) (A) (A) (A) (A) (A)
                 (A) (A) (A) (A) (A) (A) (A) (A) (A) (A) (A) (A)
                 (A) (A) (A) (A) (A) (A) (A) (A) (A) (A) (A) (A)
                 (A) (A) (A) (A) (A) (A) (A) (A) (A) (A)
 The electronic state is 1-A.
 Alpha  occ. eigenvalues -- -482.96184-235.69056 -62.54233 -56.34809 -56.34782
 Alpha  occ. eigenvalues --  -56.34765 -27.45768 -23.51595 -23.51557 -23.51153
 Alpha  occ. eigenvalues --  -19.32751 -19.32656 -19.32651 -14.49882 -14.49789
 Alpha  occ. eigenvalues --  -14.47519 -10.40636 -10.40594 -10.40456 -10.36940
 Alpha  occ. eigenvalues --  -10.36614 -10.36606 -10.36068 -10.36058 -10.35798
 Alpha  occ. eigenvalues --  -10.34377 -10.34341 -10.34229 -10.34228 -10.33636
 Alpha  occ. eigenvalues --  -10.33515 -10.33484 -10.33449 -10.33277 -10.33258
 Alpha  occ. eigenvalues --  -10.33047 -10.33040 -10.32798 -10.32795 -10.32792
 Alpha  occ. eigenvalues --  -10.32545 -10.32444 -10.32212 -10.32207 -10.32034
 Alpha  occ. eigenvalues --  -10.32020 -10.31925 -10.31922 -10.31770 -10.31769
 Alpha  occ. eigenvalues --   -8.71012  -6.52771  -6.52670  -6.52611  -3.25163
 Alpha  occ. eigenvalues --   -2.63274  -2.63258  -2.63210  -2.63129  -2.63124
 Alpha  occ. eigenvalues --   -2.10846  -2.10528  -2.09810  -1.21703  -1.21618
 Alpha  occ. eigenvalues --   -1.21416  -1.07962  -1.07691  -1.03055  -1.00040
 Alpha  occ. eigenvalues --   -0.98215  -0.97352  -0.94128  -0.92933  -0.91164
 Alpha  occ. eigenvalues --   -0.90488  -0.89459  -0.88503  -0.87152  -0.86541
 Alpha  occ. eigenvalues --   -0.85013  -0.84779  -0.81744  -0.76446  -0.76318
 Alpha  occ. eigenvalues --   -0.75496  -0.75034  -0.75021  -0.74849  -0.74099
 Alpha  occ. eigenvalues --   -0.72329  -0.72057  -0.69980  -0.68736  -0.67246
 Alpha  occ. eigenvalues --   -0.65947  -0.64497  -0.64415  -0.64253  -0.63684
 Alpha  occ. eigenvalues --   -0.63608  -0.62368  -0.61806  -0.60609  -0.59698
 Alpha  occ. eigenvalues --   -0.59442  -0.57561  -0.57430  -0.57409  -0.57046
 Alpha  occ. eigenvalues --   -0.56225  -0.55980  -0.55667  -0.55501  -0.55301
 Alpha  occ. eigenvalues --   -0.54997  -0.54563  -0.54395  -0.54122  -0.53933
 Alpha  occ. eigenvalues --   -0.53289  -0.53212  -0.53108  -0.52775  -0.52274
 Alpha  occ. eigenvalues --   -0.52173  -0.51700  -0.51051  -0.50950  -0.50794
 Alpha  occ. eigenvalues --   -0.50699  -0.50556  -0.49941  -0.49442  -0.49068
 Alpha  occ. eigenvalues --   -0.48319  -0.48187  -0.47432  -0.47104  -0.46603
 Alpha  occ. eigenvalues --   -0.46161  -0.45533  -0.44719  -0.44392  -0.43516
 Alpha  occ. eigenvalues --   -0.42833  -0.41687  -0.41130  -0.40656  -0.40432
 Alpha  occ. eigenvalues --   -0.39910  -0.39191  -0.37610  -0.36296  -0.35771
 Alpha  occ. eigenvalues --   -0.35620  -0.33695  -0.33319  -0.33176  -0.32052
 Alpha  occ. eigenvalues --   -0.31005  -0.29855  -0.29661  -0.27894  -0.27015
 Alpha virt. eigenvalues --   -0.02920  -0.00151   0.00514   0.00664   0.02050
 Alpha virt. eigenvalues --    0.02319   0.02485   0.03709   0.04263   0.05364
 Alpha virt. eigenvalues --    0.05869   0.06858   0.07757   0.08246   0.08919
 Alpha virt. eigenvalues --    0.09383   0.09669   0.09750   0.11615   0.12209
 Alpha virt. eigenvalues --    0.12350   0.12885   0.13510   0.13636   0.14015
 Alpha virt. eigenvalues --    0.14386   0.14704   0.15280   0.15382   0.16153
 Alpha virt. eigenvalues --    0.16310   0.16549   0.17303   0.18108   0.18819
 Alpha virt. eigenvalues --    0.19052   0.19655   0.19747   0.20561   0.20745
 Alpha virt. eigenvalues --    0.20832   0.21854   0.22190   0.22217   0.22794
 Alpha virt. eigenvalues --    0.22978   0.23309   0.23459   0.24838   0.25162
 Alpha virt. eigenvalues --    0.26671   0.27549   0.27587   0.27917   0.28659
 Alpha virt. eigenvalues --    0.28864   0.30050   0.30151   0.30724   0.30829
 Alpha virt. eigenvalues --    0.31212   0.31696   0.32311   0.32937   0.33040
 Alpha virt. eigenvalues --    0.33246   0.33368   0.33991   0.34088   0.34250
 Alpha virt. eigenvalues --    0.34343   0.35031   0.35563   0.35806   0.36178
 Alpha virt. eigenvalues --    0.36215   0.36545   0.36836   0.36900   0.37333
 Alpha virt. eigenvalues --    0.38291   0.38380   0.38899   0.39287   0.40013
 Alpha virt. eigenvalues --    0.40367   0.40705   0.41846   0.42130   0.42177
 Alpha virt. eigenvalues --    0.42370   0.42571   0.42749   0.44042   0.44225
 Alpha virt. eigenvalues --    0.44619   0.45813   0.46330   0.47073   0.47283
 Alpha virt. eigenvalues --    0.47555   0.48389   0.48562   0.48779   0.49312
 Alpha virt. eigenvalues --    0.50269   0.50505   0.50903   0.51233   0.51538
 Alpha virt. eigenvalues --    0.52362   0.52527   0.52931   0.52963   0.53313
 Alpha virt. eigenvalues --    0.53410   0.53509   0.54475   0.54526   0.54841
 Alpha virt. eigenvalues --    0.55347   0.55510   0.55988   0.56152   0.56204
 Alpha virt. eigenvalues --    0.56853   0.57182   0.57876   0.57971   0.58490
 Alpha virt. eigenvalues --    0.58977   0.59485   0.59729   0.60326   0.60507
 Alpha virt. eigenvalues --    0.60974   0.61487   0.61705   0.62009   0.62718
 Alpha virt. eigenvalues --    0.63077   0.64029   0.64426   0.64686   0.64879
 Alpha virt. eigenvalues --    0.65702   0.66285   0.66735   0.66899   0.67276
 Alpha virt. eigenvalues --    0.67780   0.68463   0.68518   0.68828   0.69271
 Alpha virt. eigenvalues --    0.69760   0.70300   0.70518   0.70584   0.71748
 Alpha virt. eigenvalues --    0.71908   0.72051   0.72169   0.72548   0.72739
 Alpha virt. eigenvalues --    0.73041   0.73152   0.73608   0.73630   0.73902
 Alpha virt. eigenvalues --    0.74499   0.74806   0.74980   0.75147   0.75665
 Alpha virt. eigenvalues --    0.75933   0.76007   0.76161   0.76509   0.76972
 Alpha virt. eigenvalues --    0.77183   0.77305   0.77567   0.77855   0.78793
 Alpha virt. eigenvalues --    0.79090   0.79432   0.79654   0.80136   0.80361
 Alpha virt. eigenvalues --    0.80411   0.80773   0.81073   0.81646   0.81756
 Alpha virt. eigenvalues --    0.82236   0.82592   0.82844   0.83206   0.83809
 Alpha virt. eigenvalues --    0.84410   0.84719   0.85216   0.85417   0.85765
 Alpha virt. eigenvalues --    0.85953   0.86203   0.86541   0.87048   0.87381
 Alpha virt. eigenvalues --    0.87838   0.88061   0.88647   0.89278   0.89612
 Alpha virt. eigenvalues --    0.89840   0.90537   0.90986   0.91190   0.91241
 Alpha virt. eigenvalues --    0.91862   0.92295   0.92691   0.93476   0.94049
 Alpha virt. eigenvalues --    0.94890   0.95558   0.95642   0.96348   0.96709
 Alpha virt. eigenvalues --    0.97245   0.97612   0.97849   0.98026   0.99392
 Alpha virt. eigenvalues --    0.99793   1.00190   1.01915   1.02179   1.02287
 Alpha virt. eigenvalues --    1.02923   1.03569   1.05110   1.06057   1.07421
 Alpha virt. eigenvalues --    1.07835   1.08286   1.09455   1.10724   1.11324
 Alpha virt. eigenvalues --    1.11900   1.12870   1.13618   1.14921   1.15674
 Alpha virt. eigenvalues --    1.16024   1.16264   1.16765   1.17015   1.17625
 Alpha virt. eigenvalues --    1.17906   1.18424   1.18932   1.20821   1.21423
 Alpha virt. eigenvalues --    1.22206   1.23130   1.24184   1.25109   1.25681
 Alpha virt. eigenvalues --    1.26249   1.26462   1.27066   1.28005   1.28386
 Alpha virt. eigenvalues --    1.29353   1.29640   1.29731   1.30427   1.30510
 Alpha virt. eigenvalues --    1.30717   1.31304   1.31728   1.31950   1.32303
 Alpha virt. eigenvalues --    1.32412   1.33836   1.34106   1.34341   1.34947
 Alpha virt. eigenvalues --    1.35071   1.35371   1.35749   1.35909   1.36125
 Alpha virt. eigenvalues --    1.36253   1.37189   1.37488   1.38398   1.38924
 Alpha virt. eigenvalues --    1.39554   1.39647   1.41056   1.42123   1.42237
 Alpha virt. eigenvalues --    1.43592   1.44046   1.44756   1.45093   1.46536
 Alpha virt. eigenvalues --    1.47480   1.48797   1.50623   1.51019   1.52119
 Alpha virt. eigenvalues --    1.55258   1.55595   1.55883   1.58800   1.59624
 Alpha virt. eigenvalues --    1.60085   1.62220   1.62812   1.64487   1.64725
 Alpha virt. eigenvalues --    1.66433   1.66567   1.67811   1.67984   1.69360
 Alpha virt. eigenvalues --    1.70829   1.72033   1.72577   1.72968   1.73092
 Alpha virt. eigenvalues --    1.73166   1.73462   1.73847   1.74215   1.74891
 Alpha virt. eigenvalues --    1.75386   1.76205   1.77037   1.77265   1.77617
 Alpha virt. eigenvalues --    1.78306   1.78416   1.79168   1.79337   1.79664
 Alpha virt. eigenvalues --    1.79770   1.80419   1.80702   1.80797   1.81142
 Alpha virt. eigenvalues --    1.81587   1.81624   1.81731   1.82082   1.82246
 Alpha virt. eigenvalues --    1.82562   1.82599   1.82851   1.83240   1.83478
 Alpha virt. eigenvalues --    1.83851   1.84075   1.84787   1.85103   1.85440
 Alpha virt. eigenvalues --    1.85816   1.86129   1.86778   1.87408   1.88046
 Alpha virt. eigenvalues --    1.88633   1.89482   1.89965   1.90330   1.90705
 Alpha virt. eigenvalues --    1.90883   1.91037   1.92339   1.92913   1.94100
 Alpha virt. eigenvalues --    1.94657   1.94737   1.95957   1.96347   1.96533
 Alpha virt. eigenvalues --    1.96996   1.97960   1.98188   1.99315   1.99816
 Alpha virt. eigenvalues --    2.00634   2.00795   2.01442   2.01550   2.02576
 Alpha virt. eigenvalues --    2.03069   2.03544   2.03752   2.04382   2.04520
 Alpha virt. eigenvalues --    2.04788   2.05395   2.05545   2.06209   2.07097
 Alpha virt. eigenvalues --    2.08508   2.08805   2.09587   2.10150   2.10364
 Alpha virt. eigenvalues --    2.10971   2.11315   2.11988   2.13845   2.14530
 Alpha virt. eigenvalues --    2.15216   2.15376   2.16394   2.16827   2.17134
 Alpha virt. eigenvalues --    2.17859   2.18646   2.19320   2.19796   2.20319
 Alpha virt. eigenvalues --    2.20558   2.20849   2.20948   2.21528   2.23056
 Alpha virt. eigenvalues --    2.23803   2.23927   2.24453   2.25599   2.26555
 Alpha virt. eigenvalues --    2.26961   2.29472   2.29722   2.31136   2.31258
 Alpha virt. eigenvalues --    2.31428   2.31997   2.32555   2.34047   2.34488
 Alpha virt. eigenvalues --    2.34921   2.36477   2.36727   2.36882   2.37333
 Alpha virt. eigenvalues --    2.37899   2.38109   2.38560   2.39087   2.39612
 Alpha virt. eigenvalues --    2.40365   2.41056   2.41838   2.41971   2.42834
 Alpha virt. eigenvalues --    2.44078   2.45053   2.45389   2.46252   2.46796
 Alpha virt. eigenvalues --    2.47898   2.48364   2.50035   2.50447   2.50621
 Alpha virt. eigenvalues --    2.53864   2.55349   2.56932   2.57470   2.59168
 Alpha virt. eigenvalues --    2.60491   2.60989   2.61564   2.63982   2.64583
 Alpha virt. eigenvalues --    2.66025   2.66400   2.66820   2.67248   2.67488
 Alpha virt. eigenvalues --    2.68120   2.68215   2.70899   2.70919   2.71339
 Alpha virt. eigenvalues --    2.71426   2.71511   2.71724   2.72142   2.72183
 Alpha virt. eigenvalues --    2.72548   2.72790   2.74177   2.74603   2.74743
 Alpha virt. eigenvalues --    2.75540   2.76540   2.79250   2.79507   2.79887
 Alpha virt. eigenvalues --    2.80458   2.80552   2.80803   2.81716   2.82138
 Alpha virt. eigenvalues --    2.84535   2.85759   2.86253   2.86974   2.87414
 Alpha virt. eigenvalues --    2.88812   2.89602   2.91485   2.93001   2.95103
 Alpha virt. eigenvalues --    2.95747   2.97626   2.98052   2.99165   3.01104
 Alpha virt. eigenvalues --    3.03048   3.05062   3.06043   3.06152   3.07598
 Alpha virt. eigenvalues --    3.08343   3.09608   3.10019   3.11710   3.12608
 Alpha virt. eigenvalues --    3.15675   3.16094   3.19273   3.19804   3.20626
 Alpha virt. eigenvalues --    3.20901   3.21126   3.22427   3.23282   3.24747
 Alpha virt. eigenvalues --    3.25817   3.30045   3.31233   3.32586   3.34810
 Alpha virt. eigenvalues --    3.38061   3.39421   3.42077   3.47236   3.48565
 Alpha virt. eigenvalues --    3.50639   3.51636   3.55471   3.58080   3.62468
 Alpha virt. eigenvalues --    3.62791   3.63157   3.63920   3.64121   3.65753
 Alpha virt. eigenvalues --    3.66420   3.67091   3.69555   3.71823   3.72498
 Alpha virt. eigenvalues --    3.75805   3.76899   3.77203   3.82966   3.83199
 Alpha virt. eigenvalues --    3.90856   3.91639   3.95673   4.00400   4.06058
 Alpha virt. eigenvalues --    4.13665
          Condensed to atoms (all electrons):
 Mulliken charges:
               1
     1  Mn  -0.680226
     2  C    0.347838
     3  O   -0.072542
     4  C    0.348590
     5  O   -0.074410
     6  C    0.306002
     7  N   -0.212587
     8  C   -0.037715
     9  C    0.037011
    10  C    0.094972
    11  H    0.061181
    12  H    0.054092
    13  N    0.061272
    14  C    0.000748
    15  C   -0.155934
    16  C    0.025899
    17  C   -0.024189
    18  C    0.025483
    19  H    0.044902
    20  H    0.065843
    21  N   -0.207445
    22  C   -0.039274
    23  C    0.039615
    24  H    0.060128
    25  C    0.104352
    26  H    0.089840
    27  C    0.103142
    28  H    0.087092
    29  H    0.051370
    30  O   -0.089808
    31  C   -0.181491
    32  C   -0.084505
    33  C   -0.041451
    34  C    0.063490
    35  C   -0.066566
    36  C   -0.018776
    37  C   -0.018964
    38  C    0.015730
    39  C    0.081088
    40  H    0.035735
    41  H    0.043664
    42  H    0.032754
    43  C    0.080383
    44  C    0.015640
    45  C   -0.018708
    46  C   -0.019458
    47  C   -0.064385
    48  C    0.060451
    49  H    0.032550
    50  H    0.043736
    51  H    0.035454
    52  C   -0.045749
    53  H    0.053973
    54  C    0.091921
    55  H    0.062148
    56  H    0.061021
    57  C   -0.006426
    58  C   -0.022441
    59  H    0.053739
    60  H    0.056561
    61  Br  -0.813027
    62  H    0.021773
    63  H    0.044892
 Sum of Mulliken charges =  -0.00000
 Mulliken charges with hydrogens summed into heavy atoms:
               1
     1  Mn  -0.680226
     2  C    0.347838
     3  O   -0.072542
     4  C    0.348590
     5  O   -0.074410
     6  C    0.306002
     7  N   -0.212587
     8  C    0.023466
     9  C    0.091103
    10  C    0.155993
    13  N    0.061272
    14  C    0.000748
    15  C   -0.155934
    16  C    0.070801
    17  C    0.027182
    18  C    0.091326
    21  N   -0.207445
    22  C    0.020854
    23  C    0.093589
    25  C    0.194192
    27  C    0.190234
    30  O   -0.089808
    31  C   -0.136599
    32  C   -0.062732
    33  C   -0.041451
    34  C    0.063490
    35  C   -0.030830
    36  C    0.024889
    37  C    0.013791
    38  C    0.015730
    39  C    0.081088
    43  C    0.080383
    44  C    0.015640
    45  C    0.013842
    46  C    0.024278
    47  C   -0.028931
    48  C    0.060451
    52  C   -0.045749
    54  C    0.154068
    57  C    0.050135
    58  C    0.031298
    61  Br  -0.813027
 Electronic spatial extent (au):  <R**2>=          23510.1430
 Charge=             -0.0000 electrons
 Dipole moment (field-independent basis, Debye):
    X=             16.0916    Y=             13.9764    Z=              4.3077  Tot=             21.7448
 Quadrupole moment (field-independent basis, Debye-Ang):
   XX=           -288.8249   YY=           -248.0115   ZZ=           -225.9202
   XY=            -44.6261   XZ=            -13.2547   YZ=            -11.9428
 Traceless Quadrupole moment (field-independent basis, Debye-Ang):
   XX=            -34.5727   YY=              6.2407   ZZ=             28.3320
   XY=            -44.6261   XZ=            -13.2547   YZ=            -11.9428
 Octapole moment (field-independent basis, Debye-Ang**2):
  XXX=            367.9368  YYY=            141.4500  ZZZ=             29.7658  XYY=           -114.4710
  XXY=            175.3736  XXZ=             54.6781  XZZ=             20.5251  YZZ=             13.7546
  YYZ=             20.7615  XYZ=            -57.9116
 Hexadecapole moment (field-independent basis, Debye-Ang**3):
 XXXX=         -16815.7779 YYYY=          -6668.8603 ZZZZ=          -5852.9328 XXXY=           -791.9357
 XXXZ=           -251.3737 YYYX=           -384.0004 YYYZ=            321.0182 ZZZX=             28.8621
 ZZZY=           -278.2007 XXYY=          -4058.3881 XXZZ=          -3583.1467 YYZZ=          -2243.0641
 XXYZ=           -106.5673 YYXZ=           -152.3235 ZZXY=             14.5552
 N-N= 6.052230755777D+03 E-N=-2.493338185703D+04  KE= 5.399351589470D+03
 PrsmSu:  requested number of processors reduced to:  11 ShMem   1 Linda.
 D1PCM: PCM CHGder 1st derivatives, ID1Alg=3 FixD1E=F DoIter=F DoCFld=F I1PDM=0.
 CoulSu:  requested number of processors reduced to:  10 ShMem   1 Linda.
 CoulSu:  requested number of processors reduced to:  10 ShMem   1 Linda.
[...]
   D43        0.02458  -0.00008   0.00000   0.00292   0.00002   0.02460
   D44       -3.08246   0.00005   0.00000   0.00399   0.00003  -3.08243
   D45        3.12683   0.00003   0.00000   0.00318   0.00002   3.12685
   D46        0.01979   0.00015   0.00000   0.00425   0.00003   0.01982
   D47        0.00783  -0.00034   0.00000  -0.00266  -0.00002   0.00781
   D48       -3.10670  -0.00056   0.00000  -0.00493  -0.00003  -3.10673
   D49       -3.13049   0.00011   0.00000  -0.00022  -0.00000  -3.13049
   D50        0.03817  -0.00011   0.00000  -0.00248  -0.00002   0.03815
   D51        0.08079  -0.00019   0.00000  -0.00086  -0.00001   0.08079
   D52       -3.08744   0.00001   0.00000   0.00134   0.00001  -3.08743
   D53       -3.05814  -0.00013   0.00000  -0.00346  -0.00002  -3.05816
   D54        0.05681   0.00007   0.00000  -0.00126  -0.00001   0.05680
   D55        2.54648   0.00002   0.00000   0.01389   0.00009   2.54658
   D56        0.11050  -0.00129   0.00000  -0.00217  -0.00001   0.11048
   D57       -3.06190  -0.00131   0.00000  -0.00546  -0.00004  -3.06194
   D58        0.11458   0.00029   0.00000   0.00551   0.16847   0.28306
   D59        3.13386   0.00043   0.00000  -0.00089  -0.00001   3.13385
   D60       -0.00371   0.00026   0.00000  -0.00200  -0.00001  -0.00372
   D61       -0.00243   0.00015   0.00000   0.00098   0.00001  -0.00242
   D62       -3.14000  -0.00002   0.00000  -0.00014  -0.00000  -3.14000
   D63        0.00417  -0.00066   0.00000   0.00076   0.00000   0.00418
   D64       -3.13780  -0.00034   0.00000   0.00217   0.00001  -3.13778
   D65        3.14046  -0.00038   0.00000  -0.00114  -0.00001   3.14045
   D66       -0.00151  -0.00007   0.00000   0.00028   0.00000  -0.00151
   D67       -3.13776  -0.00012   0.00000  -0.00106  -0.00001  -3.13777
   D68        0.00371  -0.00010   0.00000  -0.00093  -0.00001   0.00371
   D69       -0.00025   0.00006   0.00000   0.00008   0.00000  -0.00024
   D70        3.14123   0.00008   0.00000   0.00022   0.00000   3.14123
   D71       -0.92607   0.00064   0.00000   0.01407   0.00009  -0.92598
   D72        2.21961   0.00046   0.00000   0.01293   0.00008   2.21969
   D73       -0.00106  -0.00005   0.00000  -0.00040  -0.00000  -0.00107
   D74        3.13939   0.00006   0.00000   0.00046   0.00000   3.13939
   D75        3.14041  -0.00003   0.00000  -0.00026  -0.00000   3.14041
   D76       -0.00232   0.00008   0.00000   0.00060   0.00000  -0.00232
   D77       -0.89861  -0.00038   0.00000  -0.00949  -0.00006  -0.89867
   D78       -0.13389   0.00026   0.00000  -0.00457  -0.00003  -0.13392
   D79        2.24337  -0.00069   0.00000  -0.01092  -0.00007   2.24330
   D80        3.00808  -0.00006   0.00000  -0.00601  -0.00004   3.00804
   D81        0.00418  -0.00008   0.00000  -0.00161  -0.00001   0.00417
   D82       -3.13874  -0.00012   0.00000  -0.00132  -0.00001  -3.13875
   D83       -3.13779   0.00023   0.00000  -0.00018  -0.00000  -3.13779
   D84        0.00248   0.00019   0.00000   0.00011   0.00000   0.00248
   D85        1.52346   0.00027   0.00000  -0.02155  -0.00014   1.52332
   D86        2.92049  -0.00042   0.00000  -0.00322  -0.00002   2.92047
   D87       -0.18375   0.00003   0.00000  -0.00077  -0.00001  -0.18375
   D88       -0.07370   0.00006   0.00000   0.00670   0.00004  -0.07366
   D89        3.10525   0.00052   0.00000   0.00915   0.00006   3.10531
   D90       -2.86567  -0.00012   0.00000   0.00428   0.00003  -2.86564
   D91        0.27842  -0.00014   0.00000  -0.00024  -0.00000   0.27842
   D92        0.11977  -0.00047   0.00000  -0.00531  -0.00003   0.11974
   D93       -3.01932  -0.00050   0.00000  -0.00983  -0.00006  -3.01939
   D94       -3.11763  -0.00068   0.00000  -0.00470  -0.00003  -3.11766
   D95        0.02911  -0.00038   0.00000  -0.00282  -0.00002   0.02909
   D96        0.05426  -0.00047   0.00000  -0.00107  -0.00001   0.05425
   D97       -3.08219  -0.00017   0.00000   0.00081   0.00001  -3.08218
   D98       -2.23815   0.00112   0.00000   0.03338   0.00022  -2.23793
   D99        0.87310   0.00090   0.00000   0.02967   0.00019   0.87329
   D100      -0.01130   0.00042   0.00000  -0.00357  -0.00002  -0.01132
   D101       3.09145  -0.00005   0.00000  -0.00612  -0.00004   3.09141
   D102      -3.12331   0.00062   0.00000   0.00009   0.00000  -3.12330
   D103      -0.02056   0.00016   0.00000  -0.00246  -0.00002  -0.02057
   D104       3.10782   0.00028   0.00000   0.00484   0.00003   3.10785
   D105      -0.01345   0.00008   0.00000   0.00232   0.00002  -0.01344
   D106      -0.03891  -0.00001   0.00000   0.00297   0.00002  -0.03889
   D107       3.12300  -0.00021   0.00000   0.00044   0.00000   3.12300
   D108      -2.99054  -0.00033   0.00000  -0.00146  -0.00001  -2.99055
   D109       0.14072  -0.00013   0.00000  -0.00114  -0.00001   0.14071
   D110      -3.13698   0.00022   0.00000   0.00369   0.00002  -3.13696
   D111      -0.00572   0.00042   0.00000   0.00401   0.00003  -0.00570
   D112       0.19141  -0.00102   0.00000  -0.01534  -0.00010   0.19131
   D113      -2.96052  -0.00081   0.00000  -0.01502  -0.00010  -2.96061
   D114      -0.13870   0.00005   0.00000   0.00024   0.00000  -0.13870
   D115       2.99073   0.00026   0.00000   0.00141   0.00001   2.99074
   D116       0.00749  -0.00048   0.00000  -0.00488  -0.00003   0.00746
   D117       3.13692  -0.00027   0.00000  -0.00371  -0.00002   3.13690
   D118       2.96259   0.00072   0.00000   0.01407   0.00009   2.96268
   D119      -0.19116   0.00094   0.00000   0.01524   0.00010  -0.19106
   D120       1.54235  -0.00008   0.00000   0.00314   0.16846   1.71080
   D121      -1.46210  -0.00021   0.00000  -0.00036   0.16844  -1.29366
   D122       3.11665  -0.00002   0.00000  -0.00109  -0.00001   3.11664
   D123      -0.04490  -0.00009   0.00000  -0.00048  -0.00000  -0.04490
   D124      -0.05643   0.00086   0.00000   0.01316   0.00009  -0.05635
   D125       3.06520   0.00079   0.00000   0.01377   0.00009   3.06529
   D126      -3.05254  -0.00058   0.00000  -0.00599  -0.00004  -3.05258
   D127       0.06909  -0.00065   0.00000  -0.00539  -0.00004   0.06906
   D128       0.04698   0.00002   0.00000  -0.00041  -0.00000   0.04698
   D129      -3.11349  -0.00003   0.00000  -0.00005  -0.00000  -3.11349
   D130      -3.06296  -0.00086   0.00000  -0.01473  -0.00010  -3.06306
   D131       0.05975  -0.00091   0.00000  -0.01437  -0.00009   0.05966
   D132      -0.06701   0.00058   0.00000   0.00449   0.00003  -0.06698
   D133       3.05570   0.00053   0.00000   0.00485   0.00003   3.05574
   D134       0.78868   0.00052   0.00000   0.00518   0.00003   0.78871
   D135      -2.39837   0.00072   0.00000   0.00633   0.00004  -2.39833
   D136      -2.32483   0.00031   0.00000   0.00285   0.00002  -2.32481
   D137       0.77131   0.00051   0.00000   0.00401   0.00003   0.77133
   D138       3.08400   0.00008   0.00000   0.00014   0.00000   3.08400
   D139      -0.01532   0.00014   0.00000   0.00079   0.00001  -0.01531
   D140      -0.01312  -0.00011   0.00000  -0.00095  -0.00001  -0.01313
   D141      -3.11244  -0.00006   0.00000  -0.00030  -0.00000  -3.11244
   D142       0.10221  -0.00004   0.00000  -0.00122  -0.00001   0.10220
   D143      -3.02891  -0.00026   0.00000  -0.00158  -0.00001  -3.02892
   D144      -3.08444   0.00017   0.00000  -0.00012  -0.00000  -3.08444
   D145       0.06762  -0.00005   0.00000  -0.00048  -0.00000   0.06762
   D146      -0.03553   0.00008   0.00000   0.00111   0.00001  -0.03552
   D147       3.13805   0.00005   0.00000   0.00116   0.00001   3.13806
   D148       3.06410   0.00003   0.00000   0.00046   0.00000   3.06410
   D149      -0.04550  -0.00000   0.00000   0.00052   0.00000  -0.04550
   D150       0.02776  -0.00004   0.00000  -0.00000  -0.00000   0.02776
   D151      -3.10732  -0.00005   0.00000   0.00040   0.00000  -3.10732
   D152       3.13694  -0.00001   0.00000  -0.00007  -0.00000   3.13694
   D153       0.00186  -0.00002   0.00000   0.00033   0.00000   0.00186
   D154      -3.13402  -0.00015   0.00000  -0.00069  -0.00000  -3.13403
   D155       0.02774  -0.00011   0.00000  -0.00138  -0.00001   0.02773
   D156       0.00121  -0.00014   0.00000  -0.00109  -0.00001   0.00120
   D157      -3.12021  -0.00011   0.00000  -0.00178  -0.00001  -3.12022
   D158      -0.04574   0.00002   0.00000   0.00079   0.00001  -0.04573
   D159       3.08599   0.00021   0.00000   0.00109   0.00001   3.08600
   D160       3.07637  -0.00003   0.00000   0.00139   0.00001   3.07638
   D161      -0.07508   0.00016   0.00000   0.00168   0.00001  -0.07507
   D162       0.04171   0.00010   0.00000   0.00094   0.00001   0.04172
   D163      -3.08155   0.00014   0.00000   0.00060   0.00000  -3.08154
   D164      -3.08821  -0.00009   0.00000  -0.00017  -0.00000  -3.08821
   D165       0.07171  -0.00005   0.00000  -0.00051  -0.00000   0.07171
   D166       3.08957  -0.00029   0.00000  -0.00237  -0.00002   3.08956
   D167      -0.09968  -0.00018   0.00000   0.00057   0.00000  -0.09968
   D168      -0.06436  -0.00006   0.00000  -0.00113  -0.00001  -0.06436
   D169       3.02957   0.00005   0.00000   0.00180   0.00001   3.02958
   D170       3.13371   0.00013   0.00000   0.00106   0.00001   3.13371
   D171      -0.00068   0.00010   0.00000   0.00081   0.00001  -0.00067
   D172      -0.02695   0.00011   0.00000   0.00150   0.00001  -0.02695
   D173       3.12184   0.00008   0.00000   0.00124   0.00001   3.12185
   D174      -0.02579  -0.00003   0.00000  -0.00094  -0.00001  -0.02580
   D175      -3.13614   0.00000   0.00000  -0.00051  -0.00000  -3.13614
   D176       3.10843  -0.00000   0.00000  -0.00067  -0.00000   3.10843
   D177      -0.00191   0.00003   0.00000  -0.00025  -0.00000  -0.00191
   D178       0.03350  -0.00002   0.00000  -0.00064  -0.00000   0.03350
   D179      -3.06587   0.00003   0.00000  -0.00057  -0.00000  -3.06587
   D180      -3.13894  -0.00005   0.00000  -0.00105  -0.00001  -3.13895
   D181       0.04487  -0.00000   0.00000  -0.00098  -0.00001   0.04486
   D182       0.01240   0.00015   0.00000   0.00178   0.00001   0.01241
   D183      -3.08193   0.00004   0.00000  -0.00116  -0.00001  -3.08193
   D184       3.11147   0.00010   0.00000   0.00170   0.00001   3.11148
   D185       0.01715  -0.00001   0.00000  -0.00124  -0.00001   0.01714
   D186       2.37266  -0.00052   0.00000  -0.00608  -0.00004   2.37262
   D187      -0.78996  -0.00033   0.00000  -0.00351  -0.00002  -0.78999
   D188      -0.81717  -0.00041   0.00000  -0.00305  -0.00002  -0.81719
   D189       2.30339  -0.00021   0.00000  -0.00048  -0.00000   2.30339
   D190      -0.07652   0.00034   0.00000   0.00085   0.00001  -0.07652
   D191       3.06250   0.00037   0.00000   0.00550   0.00004   3.06254
   D192       3.08494   0.00017   0.00000  -0.00154  -0.00001   3.08493
   D193      -0.05922   0.00020   0.00000   0.00311   0.00002  -0.05920
   D194      -0.00293   0.00013   0.00000   0.00167   0.00001  -0.00292
   D195       3.13999   0.00017   0.00000   0.00139   0.00001   3.14000
   D196       3.13980   0.00003   0.00000   0.00082   0.00001   3.13980
   D197      -0.00047   0.00007   0.00000   0.00053   0.00000  -0.00046
         Item               Value     Threshold  Converged?
 Maximum Force            0.030717     0.000450     NO 
 RMS     Force            0.002301     0.000300     NO 
 Maximum Displacement     0.001645     0.001800     YES
 RMS     Displacement     0.000304     0.001200     YES
 Predicted change in Energy= 2.882462D-05
 GradGradGradGradGradGradGradGradGradGradGradGradGradGradGradGradGradGrad

 Stoichiometry    C34H21BrMnN3O3
 Framework group  C1[X(C34H21BrMnN3O3)]
 Deg. of freedom   183
 Full point group                 C1      NOp   1
 Largest Abelian subgroup         C1      NOp   1
 Largest concise Abelian subgroup C1      NOp   1
                         Standard orientation:                         
 ---------------------------------------------------------------------
 Center     Atomic      Atomic             Coordinates (Angstroms)
 Number     Number       Type             X           Y           Z
 ---------------------------------------------------------------------
      1         25           0       -1.707232   -1.664492   -0.482819
      2          6           0       -2.661531   -2.048412   -1.997852
      3          8           0       -3.123705   -2.375875   -2.994205
      4          6           0       -2.583969   -2.924712    0.514523
      5          8           0       -2.990054   -3.806112    1.125096
      6          6           0       -0.579667   -2.941580   -0.953379
      7          7           0       -0.571426   -1.294078    1.340803
      8          6           0       -0.590872   -0.458645    3.582668
      9          6           0        0.796789   -0.351901    3.577349
     10          6           0        0.760434   -1.279488    1.380524
     11          1           0       -1.175821   -0.152272    4.450500
     12          1           0        1.324466    0.060719    4.441151
     13          7           0       -2.094010    0.630316    0.282633
     14          6           0       -2.164165    1.740494    0.582263
     15          6           0       -2.287692    3.137402    0.888129
     16          6           0       -1.144646    3.941186    0.920441
     17          6           0       -1.271973    5.298405    1.208817
     18          6           0       -3.552931    3.681046    1.144631
     19          1           0       -0.168514    3.499870    0.716538
     20          1           0       -4.438331    3.044226    1.115601
     21          7           0       -0.612350   -0.225322   -1.746265
     22          6           0       -0.707102    1.846587   -2.931126
     23          6           0        0.682099    1.947851   -2.911155
     24          1           0       -1.328756    2.619702   -3.379330
     25          6           0       -1.236289   -0.918828    2.445049
     26          1           0       -2.327640   -0.962003    2.398250
     27          6           0       -1.311284    0.752907   -2.334787
     28          1           0       -2.399446    0.669975   -2.293928
     29          1           0       -0.386679    5.934225    1.232814
     30          8           0        0.126441   -3.799396   -1.265443
     31          6           0        3.023534    0.256556    0.088153
     32          6           0        5.746489   -0.007099   -0.041853
     33          6           0        1.508594   -0.775136    2.452002
     34          6           0        2.994131   -0.732653    2.389913
     35          6           0        3.736035   -1.179689    3.455223
     36          6           0        5.162271   -1.221584    3.411187
     37          6           0        5.828573   -0.851975    2.279770
     38          6           0        5.102628   -0.385103    1.134566
     39          6           0        3.681623   -0.277305    1.197539
     40          1           0        3.226496   -1.550820    4.348425
     41          1           0        5.711227   -1.582029    4.284642
     42          1           0        6.919818   -0.910060    2.223130
     43          6           0        3.648188    0.536960   -1.127290
     44          6           0        5.069760    0.423980   -1.183679
     45          6           0        5.756787    0.775083   -2.392762
     46          6           0        5.053802    1.183139   -3.489015
     47          6           0        3.626980    1.235603   -3.456789
     48          6           0        2.920608    0.918809   -2.322859
     49          1           0        6.848224    0.702412   -2.418519
     50          1           0        5.574776    1.446350   -4.413140
     51          1           0        3.088620    1.497269   -4.371565
     52          6           0        1.431300    0.911119   -2.347843
     53          1           0        1.181340    2.827849   -3.325640
     54          6           0        0.716286   -0.172000   -1.817275
     55          1           0        1.258082   -1.036925   -1.434867
     56          1           0        1.279109   -1.693243    0.514937
     57          6           0       -2.527858    5.844646    1.466367
     58          6           0       -3.664434    5.038996    1.436238
     59          1           0       -4.644026    5.472927    1.640268
     60          1           0       -2.623143    6.910839    1.694494
     61         35           0       -4.513635   -1.064698   -0.201020
     62          1           0        6.862302   -0.023808   -0.057730
     63          1           0        1.943981    0.508210    0.190231
 ---------------------------------------------------------------------
 Rotational constants (GHZ):           0.0932534           0.0557973           0.0518691
 Basis read from rwf:  (5D, 7F)
 There are   802 symmetry adapted cartesian basis functions of A   symmetry.
 There are   751 symmetry adapted basis functions of A   symmetry.
   751 basis functions,  1339 primitive gaussians,   802 cartesian basis functions
   165 alpha electrons      165 beta electrons
       nuclear repulsion energy      6090.9595286450 Hartrees.
 NAtoms=   63 NActive=   63 NUniq=   63 SFac= 1.00D+00 NAtFMM=   60 NAOKFM=T Big=T
 Integral buffers will be    131072 words long.
 Raffenetti 2 integral format.
 Two-electron integral symmetry is turned on.
 Nuclear repulsion after empirical dispersion term =     6090.8941161507 Hartrees.
 ------------------------------------------------------------------------------
 Polarizable Continuum Model (PCM)
 =================================
 Model                : PCM.
 Atomic radii         : UFF (Universal Force Field).
 Polarization charges : Total charges.
 Charge compensation  : None.
 Solution method      : On-the-fly selection.
 Cavity type          : Scaled VdW (van der Waals Surface) (Alpha=1.100).
 Cavity algorithm     : GePol (No added spheres)
                        Default sphere list used, NSphG=   63.
                        Lebedev-Laikov grids with approx.  5.0 points / Ang**2.
                        Smoothing algorithm: York/Karplus (Gamma=1.0000).
                        Polarization charges: spherical gaussians, with
                                              point-specific exponents (IZeta= 3).
                        Self-potential: point-specific (ISelfS= 7).
                        Self-field    : sphere-specific E.n sum rule (ISelfD= 2).
 1st derivatives      : Analytical E(r).r(x)/FMM algorithm (CHGder, D1EAlg=3).
                        Cavity 1st derivative terms included.
 Solvent              : TetraHydroFuran, Eps=   7.425700 Eps(inf)=   1.974025
 ------------------------------------------------------------------------------
 One-electron integrals computed using PRISM.
 PrsmSu:  requested number of processors reduced to:  11 ShMem   1 Linda.
 NBasis=   751 RedAO= T EigKep=  2.23D-04  NBF=   751
 NBsUse=   751 1.00D-06 EigRej= -1.00D+00 NBFU=   751
 Initial guess from the checkpoint file:  "checkpoint.chk"
 B after Tr=     0.000000   -0.000000    0.000000
         Rot=    1.000000    0.000035   -0.000017    0.000065 Ang=   0.01 deg.
 Requested convergence on RMS density matrix=1.00D-08 within 128 cycles.
 Requested convergence on MAX density matrix=1.00D-06.
 Requested convergence on             energy=1.00D-06.
 No special actions if energy rises.
 CoulSu:  requested number of processors reduced to:   9 ShMem   1 Linda.
 Inv3:  Mode=1 IEnd=    67944243.
 Iteration    1 A*A^-1 deviation from unit magnitude is 4.00D-15 for   3281.
 Iteration    1 A*A^-1 deviation from orthogonality  is 2.00D-15 for   2532     16.
 Iteration    1 A^-1*A deviation from unit magnitude is 4.00D-15 for   3281.
 Iteration    1 A^-1*A deviation from orthogonality  is 2.69D-15 for   4288   3694.
 CoulSu:  requested number of processors reduced to:   9 ShMem   1 Linda.
 CoulSu:  requested number of processors reduced to:   9 ShMem   1 Linda.
