 Entering Gaussian System, Link 0=g16
 Initial command:
 /home1/apps/gaussian/16rA.03/g16/l1.exe "/tmp/Gau-260254.inp" -scrdir="/tmp/"
 Entering Link 1 = /home1/apps/gaussian/16rA.03/g16/l1.exe PID=    260256.
  
 Copyright (c) 1988,1990,1992,1993,1995,1998,2003,2009,2016,
            Gaussian, Inc.  All Rights Reserved.
  
 This is part of the Gaussian(R) 16 program.  It is based on
 the Gaussian(R) 09 system (copyright 2009, Gaussian, Inc.),
 the Gaussian(R) 03 system (copyright 2003, Gaussian, Inc.),
 the Gaussian(R) 98 system (copyright 1998, Gaussian, Inc.),
 the Gaussian(R) 94 system (copyright 1995, Gaussian, Inc.),
 the Gaussian 92(TM) system (copyright 1992, Gaussian, Inc.),
 the Gaussian 90(TM) system (copyright 1990, Gaussian, Inc.),
 the Gaussian 88(TM) system (copyright 1988, Gaussian, Inc.),
 the Gaussian 86(TM) system (copyright 1986, Carnegie Mellon
 University), and the Gaussian 82(TM) system (copyright 1983,
 Carnegie Mellon University). Gaussian is a federally registered
 trademark of Gaussian, Inc.
  
 This software contains proprietary and confidential information,
 including trade secrets, belonging to Gaussian, Inc.
  
 This software is provided under written license and may be
 used, copied, transmitted, or stored only in accord with that
 written license.
  
 The following legend is applicable only to US Government
 contracts under FAR:
  
                    RESTRICTED RIGHTS LEGEND
  
 Use, reproduction and disclosure by the US Government is
 subject to restrictions as set forth in subparagraphs (a)
 and (c) of the Commercial Computer Software - Restricted
 Rights clause in FAR 52.227-19.
  
 Gaussian, Inc.
 340 Quinnipiac St., Bldg. 40, Wallingford CT 06492
  
  
 ---------------------------------------------------------------
 Warning -- This program may not be used in any manner that
 competes with the business of Gaussian, Inc. or will provide
 assistance to any competitor of Gaussian, Inc.  The licensee
 of this program is prohibited from giving any competitor of
 Gaussian, Inc. access to this program.  By using this program,
 the user acknowledges that Gaussian, Inc. is engaged in the
 business of creating and licensing software in the field of
 computational chemistry and represents and warrants to the
 licensee that it is not a competitor of Gaussian, Inc. and that
 it will not use this program in any manner prohibited above.
 ---------------------------------------------------------------
  

 Cite this work as:
 Gaussian 16, Revision A.03,
 M. J. Frisch, G. W. Trucks, H. B. Schlegel, G. E. Scuseria, 
 M. A. Robb, J. R. Cheeseman, G. Scalmani, V. Barone, 
 G. A. Petersson, H. Nakatsuji, X. Li, M. Caricato, A. V. Marenich, 
 J. Bloino, B. G. Janesko, R. Gomperts, B. Mennucci, H. P. Hratchian, 
 J. V. Ortiz, A. F. Izmaylov, J. L. Sonnenberg, D. Williams-Young, 
 F. Ding, F. Lipparini, F. Egidi, J. Goings, B. Peng, A. Petrone, 
 T. Henderson, D. Ranasinghe, V. G. Zakrzewski, J. Gao, N. Rega, 
 G. Zheng, W. Liang, M. Hada, M. Ehara, K. Toyota, R. Fukuda, 
 J. Hasegawa, M. Ishida, T. Nakajima, Y. Honda, O. Kitao, H. Nakai, 
 T. Vreven, K. Throssell, J. A. Montgomery, Jr., J. E. Peralta, 
 F. Ogliaro, M. J. Bearpark, J. J. Heyd, E. N. Brothers, K. N. Kudin, 
 V. N. Staroverov, T. A. Keith, R. Kobayashi, J. Normand, 
 K. Raghavachari, A. P. Rendell, J. C. Burant, S. S. Iyengar, 
 J. Tomasi, M. Cossi, J. M. Millam, M. Klene, C. Adamo, R. Cammi, 
 J. W. Ochterski, R. L. Martin, K. Morokuma, O. Farkas, 
 J. B. Foresman, and D. J. Fox, Gaussian, Inc., Wallingford CT, 2016.
 
 ******************************************
 Gaussian 16:  ES64L-G16RevA.03 25-Dec-2016
                22-Oct-2022 
 ******************************************
 %Chk=checkpoint.chk
 %NProcShared=12
 Will use up to   12 processors via shared memory.
 ------------------------------------------------------
 # wB97XD Gen Opt=(QST2) SCRF=(Solvent=TetraHydroFuran)
 ------------------------------------------------------
 1/5=1,18=20,26=3,27=202,38=1/1,3;
 2/9=110,12=2,17=6,18=5,40=1/2;
 3/5=7,11=2,25=1,30=1,70=2201,71=1,72=20,74=-58/1,2,3;
 4//1;
 5/5=2,38=5,53=20/2;
 6/7=2,8=2,9=2,10=2,28=1/1;
 7//1,2,3,16;
 1/5=1,18=20,26=3,27=202/3(2);
 2/9=110/2;
 99//99;
 2/9=110/2;
 3/5=7,6=1,11=2,25=1,30=1,70=2205,71=1,72=20,74=-58,82=7/1,2,3;
 4/5=5,16=3,69=1/1;
 5/5=2,38=5,53=20/2;
 7//1,2,3,16;
 1/5=1,18=20,26=3,27=202/3(-5);
 2/9=110/2;
 6/7=2,8=2,9=2,10=2,19=2,28=1/1;
 99/9=1/99;
 ----------------------------
 Mn Transition State Reactant
 ----------------------------
 Symbolic Z-matrix:
 Charge =  0 Multiplicity = 1
 Mn                    0.        0.        0. 
 C                    -0.09679   1.8323    0.02295 
 C                     0.        0.       -1.82342 
 C                     1.83282   0.       -0.02938 
 Br                    2.59808   2.59808   2.59808 
 N                    -0.04922  -2.15482   0.09332 
 N                    -2.15153  -0.14036   0.09515 
 C                     0.52385  -2.93988  -0.8355 
 C                     0.57609  -4.32182  -0.71618 
 C                     0.03787  -4.93262   0.41495 
 C                    -0.56724  -4.13205   1.38331 
 C                    -0.59422  -2.75751   1.15179 
 C                    -2.76019  -0.33999   1.26803 
 C                    -4.08404  -0.75052   1.40528 
 C                    -2.90821  -0.24504  -1.01025 
 C                    -4.25761  -0.57119  -0.97276 
 C                    -4.8572   -0.85573   0.2508 
 C                    -4.54612  -1.14763   2.76568 
 C                    -1.06072  -4.64508   2.69242 
 C                    -2.36035  -4.39435   3.17469 
 C                    -4.2951   -2.45577   3.22064 
 C                    -2.7088   -4.77698   4.4776 
 C                    -4.6235   -2.81682   4.53378 
 C                    -5.16246  -0.23395   3.6234 
 C                    -0.16193  -5.33835   3.51187 
 C                    -0.5204   -5.73496   4.79711 
 C                    -5.49479  -0.60032   4.92642 
 C                    -5.20842  -1.88092   5.39075 
 C                    -1.78362  -5.43139   5.29359 
 S                    -3.59561  -3.66717   2.11779 
 S                    -4.34059  -4.47249   5.11215 
 H                     1.05087  -4.91025  -1.50139 
 H                     0.08951  -6.01597   0.54182 
 H                    -1.07315  -2.12266   1.89001 
 H                    -2.16282  -0.19695   2.1652 
 H                    -2.4226   -0.06909  -1.96947 
 H                    -4.81913  -0.6322   -1.90505 
 H                    -5.90099  -1.1706    0.30616 
 H                    -5.36522   0.7782    3.26819 
 H                     0.84657  -5.53732   3.14359 
 H                     0.19986  -6.26023   5.42631 
 H                    -5.96589   0.12432   5.59251 
 H                    -5.4428   -2.16193   6.41931 
 H                    -2.05931  -5.70427   6.31399 
 O                     0.06255   0.01915  -2.96537 
 O                     2.97377  -0.00521  -0.04518 
 O                    -0.17883   2.9698    0.0391 
 H                     0.9665   -2.44597  -1.70172 
 N                     0.1205   -0.06435   2.03055 
 C                     0.1757   -0.32041   3.1556 
 C                     0.0988   -0.78664   4.50696 
 C                     1.18058  -0.65782   5.389 
 C                    -1.08395  -1.43608   4.90265 
 C                     1.07101  -1.1882    6.67028 
 H                     2.09302  -0.15307   5.06933 
 C                    -1.1749   -1.96428   6.18414 
 H                    -1.92637  -1.52866   4.21411 
 C                    -0.09853  -1.84109   7.06447 
 H                     1.90634  -1.09472   7.36578 
 H                    -2.08869  -2.47607   6.49182 
 H                    -0.17211  -2.25847   8.07044 
 
 Add virtual bond connecting atoms C2         and Br5        Dist= 7.19D+00.
 Add virtual bond connecting atoms C4         and Br5        Dist= 7.13D+00.
 Add virtual bond connecting atoms O46        and Br5        Dist= 7.05D+00.
 Add virtual bond connecting atoms O47        and Br5        Dist= 7.17D+00.
 Add virtual bond connecting atoms N49        and Br5        Dist= 6.96D+00.
 ---------------------------
 Mn Transition State Product
 ---------------------------
 Symbolic Z-matrix:
 Charge =  0 Multiplicity = 1
 Mn                    0.        0.        0. 
 C                    -0.08831   1.81915   0.02694 
 C                     0.        0.       -1.79318 
 C                     1.82129   0.        0.02701 
 Br                    0.21406   0.22525   2.60296 
 N                    -0.00198  -2.15626   0.10267 
 N                    -2.15359  -0.10666   0.10261 
 C                     0.38734  -2.90055  -0.94769 
 C                     0.33894  -4.28645  -0.94857 
 C                    -0.15783  -4.94905   0.17197 
 C                    -0.57167  -4.19114   1.26468 
 C                    -0.44573  -2.80197   1.18369 
 C                    -2.77703  -0.58203   1.18326 
 C                    -4.15855  -0.77451   1.26439 
 C                    -2.91591   0.24739  -0.9473 
 C                    -4.29788   0.13244  -0.94805 
 C                    -4.93564  -0.39652   0.17216 
 C                    -4.73565  -1.36773   2.50277 
 C                    -1.13591  -4.79615   2.50328 
 C                    -2.48294  -4.59586   2.85783 
 C                    -4.47     -2.70335   2.85753 
 C                    -2.9782   -5.11928   4.05963 
 C                    -4.96894  -3.2234    4.05928 
 C                    -5.54655  -0.59398   3.33896 
 C                    -0.32361  -5.56806   3.33979 
 C                    -0.82204  -6.0942    4.52932 
 C                    -6.04809  -1.11734   4.52841 
 C                    -5.74193  -2.42245   4.90321 
 C                    -2.14059  -5.85203   4.90386 
 S                    -3.58496  -3.76369   1.73597 
 S                    -4.6875   -4.9209    4.50034 
 H                     0.67663  -4.83606  -1.82736 
 H                    -0.23113  -6.03846   0.19274 
 H                    -0.69729  -2.18819   2.04804 
 H                    -2.15175  -0.80469   2.04727 
 H                    -2.4021    0.64317  -1.82367 
 H                    -4.86325   0.44411  -1.82647 
 H                    -6.02029  -0.52198   0.19305 
 H                    -5.76345   0.43908   3.05961 
 H                     0.71885  -5.73439   3.0606 
 H                    -0.17222  -6.6814    5.18043 
 H                    -6.66649  -0.49688   5.17925 
 H                    -6.10842  -2.82852   5.84804 
 H                    -2.52842  -6.23768   5.84873 
 O                     0.04791   0.05036  -2.9414 
 O                     2.96474  -0.00968   0.05082 
 O                    -0.15349   2.9608    0.05043 
 H                     0.75715  -2.36822  -1.82434 
 N                    -1.65831  -1.65831   4.97494 
 C                    -1.07939  -1.07939   5.79365 
 C                    -0.35935  -0.36014   6.81131 
 C                     0.84963  -0.87299   7.304 
 C                    -0.87215   0.84921   7.30392 
 C                     1.54036  -0.17218   8.28813 
 H                     1.24066  -1.81442   6.9149 
 C                    -0.17147   1.53982   8.28796 
 H                    -1.81349   1.24002   6.91439 
 C                     1.03177   1.03104   8.77917 
 H                     2.48143  -0.56816   8.67381 
 H                    -0.56723   2.48097   8.67368 
 H                     1.57762   1.57686   9.5514 
 
 Add virtual bond connecting atoms N49        and H34        Dist= 5.91D+00.
 Add virtual bond connecting atoms N49        and H35        Dist= 5.84D+00.
 Iteration  1 RMS(Cart)=  0.18642248 RMS(Int)=  0.72662819
 Iteration  2 RMS(Cart)=  0.08509742 RMS(Int)=  0.71437121
 Iteration  3 RMS(Cart)=  0.07858646 RMS(Int)=  0.70507508
 Iteration  4 RMS(Cart)=  0.08009419 RMS(Int)=  0.69367379
 Iteration  5 RMS(Cart)=  0.06946131 RMS(Int)=  0.68548193
 Iteration  6 RMS(Cart)=  0.06878894 RMS(Int)=  0.67964922
 Iteration  7 RMS(Cart)=  0.06697886 RMS(Int)=  0.67569916
 Iteration  8 RMS(Cart)=  0.06539465 RMS(Int)=  0.67321496
 Iteration  9 RMS(Cart)=  0.06388121 RMS(Int)=  0.67201435
 Iteration 10 RMS(Cart)=  0.05646249 RMS(Int)=  0.67143066
 Iteration 11 RMS(Cart)=  0.05851067 RMS(Int)=  0.67113527
 Iteration 12 RMS(Cart)=  0.04826331 RMS(Int)=  0.67108414
 Iteration 13 RMS(Cart)=  0.03650017 RMS(Int)=  0.67119126
 Iteration 14 RMS(Cart)=  0.02274687 RMS(Int)=  0.67153000
 Iteration 15 RMS(Cart)=  0.02187931 RMS(Int)=  0.67204149
 Iteration 16 RMS(Cart)=  0.02152885 RMS(Int)=  0.67263593
 Iteration 17 RMS(Cart)=  0.01487283 RMS(Int)=  0.67316033
 Iteration 18 RMS(Cart)=  0.01078178 RMS(Int)=  0.67364650
 Iteration 19 RMS(Cart)=  0.00817320 RMS(Int)=  0.67419786
 Iteration 20 RMS(Cart)=  0.00736934 RMS(Int)=  0.67481691
 Iteration 21 RMS(Cart)=  0.00670961 RMS(Int)=  0.67542423
 Iteration 22 RMS(Cart)=  0.00693856 RMS(Int)=  0.67601561
 Iteration 23 RMS(Cart)=  0.00703758 RMS(Int)=  0.67659721
 Iteration 24 RMS(Cart)=  0.00702019 RMS(Int)=  0.67717202
 Iteration 25 RMS(Cart)=  0.00660838 RMS(Int)=  0.67772376
 Iteration 26 RMS(Cart)=  0.00563716 RMS(Int)=  0.67824636
 Iteration 27 RMS(Cart)=  0.00494488 RMS(Int)=  0.67874253
 Iteration 28 RMS(Cart)=  0.00460316 RMS(Int)=  0.67921455
 Iteration 29 RMS(Cart)=  0.00445841 RMS(Int)=  0.67966288
 Iteration 30 RMS(Cart)=  0.00448430 RMS(Int)=  0.68008702
 Iteration 31 RMS(Cart)=  0.00466182 RMS(Int)=  0.68048571
 Iteration 32 RMS(Cart)=  0.00497089 RMS(Int)=  0.68085877
 Iteration 33 RMS(Cart)=  0.00538580 RMS(Int)=  0.68120659
 Iteration 34 RMS(Cart)=  0.00589101 RMS(Int)=  0.68152998
 Iteration 35 RMS(Cart)=  0.00648148 RMS(Int)=  0.68183004
 Iteration 36 RMS(Cart)=  0.00716441 RMS(Int)=  0.68210789
 Iteration 37 RMS(Cart)=  0.00796446 RMS(Int)=  0.68236050
 Iteration 38 RMS(Cart)=  0.00889173 RMS(Int)=  0.68257813
 Iteration 39 RMS(Cart)=  0.00967213 RMS(Int)=  0.68276584
 Iteration 40 RMS(Cart)=  0.01014569 RMS(Int)=  0.68292560
 Iteration 41 RMS(Cart)=  0.01063718 RMS(Int)=  0.68301455
 Iteration 42 RMS(Cart)=  0.01024528 RMS(Int)=  0.68300170
 Iteration 43 RMS(Cart)=  0.00862167 RMS(Int)=  0.68293237
 Iteration 44 RMS(Cart)=  0.00697882 RMS(Int)=  0.68280472
 Iteration 45 RMS(Cart)=  0.00543046 RMS(Int)=  0.68266562
 Iteration 46 RMS(Cart)=  0.00410946 RMS(Int)=  0.68253202
 Iteration 47 RMS(Cart)=  0.00284644 RMS(Int)=  0.68241053
 Iteration 48 RMS(Cart)=  0.00204801 RMS(Int)=  0.68230399
 Iteration 49 RMS(Cart)=  0.00149983 RMS(Int)=  0.68221137
 Iteration 50 RMS(Cart)=  0.00111312 RMS(Int)=  0.68213177
 Iteration 51 RMS(Cart)=  0.00083619 RMS(Int)=  0.68206376
 Iteration 52 RMS(Cart)=  0.00063456 RMS(Int)=  0.68200551
 Iteration 53 RMS(Cart)=  0.00048662 RMS(Int)=  0.68195504
 Iteration 54 RMS(Cart)=  0.00037845 RMS(Int)=  0.68191096
 Iteration 55 RMS(Cart)=  0.00029851 RMS(Int)=  0.68187209
 Iteration 56 RMS(Cart)=  0.00023923 RMS(Int)=  0.68183749
 Iteration 57 RMS(Cart)=  0.00019528 RMS(Int)=  0.68180634
 Iteration 58 RMS(Cart)=  0.00016276 RMS(Int)=  0.68177802
 Iteration 59 RMS(Cart)=  0.00013875 RMS(Int)=  0.68175201
 Iteration 60 RMS(Cart)=  0.00012105 RMS(Int)=  0.68172790
 Iteration 61 RMS(Cart)=  0.00010797 RMS(Int)=  0.68170535
 Iteration 62 RMS(Cart)=  0.00009823 RMS(Int)=  0.68168410
 Iteration 63 RMS(Cart)=  0.00009089 RMS(Int)=  0.68166395
 Iteration 64 RMS(Cart)=  0.00008524 RMS(Int)=  0.68164472
 Iteration 65 RMS(Cart)=  0.00008078 RMS(Int)=  0.68162629
 Iteration 66 RMS(Cart)=  0.00007717 RMS(Int)=  0.68160855
 Iteration 67 RMS(Cart)=  0.00007416 RMS(Int)=  0.68159142
 Iteration 68 RMS(Cart)=  0.00007159 RMS(Int)=  0.68157483
 Iteration 69 RMS(Cart)=  0.00006933 RMS(Int)=  0.68155872
 Iteration 70 RMS(Cart)=  0.00006730 RMS(Int)=  0.68154306
 Iteration 71 RMS(Cart)=  0.00006545 RMS(Int)=  0.68152780
 Iteration 72 RMS(Cart)=  0.00006374 RMS(Int)=  0.68151292
 Iteration 73 RMS(Cart)=  0.00006214 RMS(Int)=  0.68149840
 Iteration 74 RMS(Cart)=  0.00006063 RMS(Int)=  0.68148421
 Iteration 75 RMS(Cart)=  0.00005919 RMS(Int)=  0.68147035
 Iteration 76 RMS(Cart)=  0.00005781 RMS(Int)=  0.68145678
 Iteration 77 RMS(Cart)=  0.00005649 RMS(Int)=  0.68144351
 Iteration 78 RMS(Cart)=  0.00005521 RMS(Int)=  0.68143053
 Iteration 79 RMS(Cart)=  0.00005398 RMS(Int)=  0.68141781
 Iteration 80 RMS(Cart)=  0.00005278 RMS(Int)=  0.68140536
 Iteration 81 RMS(Cart)=  0.00005162 RMS(Int)=  0.68139316
 Iteration 82 RMS(Cart)=  0.00005049 RMS(Int)=  0.68138122
 Iteration 83 RMS(Cart)=  0.00004939 RMS(Int)=  0.68136952
 Iteration 84 RMS(Cart)=  0.00004832 RMS(Int)=  0.68135805
 Iteration 85 RMS(Cart)=  0.00004728 RMS(Int)=  0.68134682
 Iteration 86 RMS(Cart)=  0.00004627 RMS(Int)=  0.68133581
 Iteration 87 RMS(Cart)=  0.00004528 RMS(Int)=  0.68132501
 Iteration 88 RMS(Cart)=  0.00004432 RMS(Int)=  0.68131444
 Iteration 89 RMS(Cart)=  0.00004338 RMS(Int)=  0.68130407
 Iteration 90 RMS(Cart)=  0.00004247 RMS(Int)=  0.68129391
 Iteration 91 RMS(Cart)=  0.00004158 RMS(Int)=  0.68128394
 Iteration 92 RMS(Cart)=  0.00004072 RMS(Int)=  0.68127418
 Iteration 93 RMS(Cart)=  0.00003987 RMS(Int)=  0.68126460
 Iteration 94 RMS(Cart)=  0.00003905 RMS(Int)=  0.68125521
 Iteration 95 RMS(Cart)=  0.00003825 RMS(Int)=  0.68124600
 Iteration 96 RMS(Cart)=  0.00003747 RMS(Int)=  0.68123697
 Iteration 97 RMS(Cart)=  0.00003672 RMS(Int)=  0.68122811
 Iteration 98 RMS(Cart)=  0.00003598 RMS(Int)=  0.68121943
 Iteration 99 RMS(Cart)=  0.00003526 RMS(Int)=  0.68121091
 Iteration100 RMS(Cart)=  0.00003456 RMS(Int)=  0.68120255
 New curvilinear step not converged.
 FormGI is forming the generalized inverse of G from B-inverse, IUseBI=4.
 RedQX1 iteration     1 Try  1 RMS(Cart)=  0.35343628 RMS(Int)=  0.70155558 XScale=  8.52927656
 RedQX1 iteration     1 Try  2 RMS(Cart)=  0.35850546 RMS(Int)=  0.66668986 XScale=  4.22046258
 RedQX1 iteration     1 Try  3 RMS(Cart)=  0.38764018 RMS(Int)=  0.64718526 XScale=  2.75769162
 RedQX1 iteration     1 Try  4 RMS(Cart)=  0.48210740 RMS(Int)=  0.64407194 XScale=  1.98861596
 RedQX1 iteration     1 Try  5 RMS(Cart)=  0.83710268 RMS(Int)=  0.68071436 XScale=  1.39448551
 RedQX1 iteration     1 Try  6 RMS(Cart)=  0.81787376 RMS(Int)=  0.68158944 XScale=  1.24157859
 RedQX1 iteration     2 Try  1 RMS(Cart)=  0.14183957 RMS(Int)=  0.67304907 XScale=  1.23336713
 RedQX1 iteration     2 Try  2 RMS(Cart)=  0.16599451 RMS(Int)=  0.66892242 XScale=  1.21325409
 RedQX1 iteration     2 Try  3 RMS(Cart)=  0.21126566 RMS(Int)=  0.67272949 XScale=  1.17637455
 RedQX1 iteration     2 Try  4 RMS(Cart)=  0.31096388 RMS(Int)=  0.69656025 XScale=  1.10908190
 RedQX1 iteration     2 Try  5 RMS(Cart)=  0.61649009 RMS(Int)=  0.85114245 XScale=  0.89405269
 RedQX1 iteration     3 Try  1 RMS(Cart)=  0.12329802 RMS(Int)=  0.71114167 XScale=  1.08342399
 RedQX1 iteration     3 Try  2 RMS(Cart)=  0.14982026 RMS(Int)=  0.73627385 XScale=  1.04431694
 RedQX1 iteration     3 Try  3 RMS(Cart)=  0.19860575 RMS(Int)=  0.79890809 XScale=  0.95944577
 RedQX1 iteration     4 Try  1 RMS(Cart)=  0.11916345 RMS(Int)=  0.76508256 XScale=  1.00373737
 RedQX1 iteration     4 Try  2 RMS(Cart)=  0.16397105 RMS(Int)=  0.80555510 XScale=  0.95187473
 RedQX1 iteration     5 Try  1 RMS(Cart)=  0.13117684 RMS(Int)=  0.79525863 XScale=  0.96470455
 RedQX1 iteration     6 Try  1 RMS(Cart)=  0.02623537 RMS(Int)=  0.77138987 XScale=  0.99530814
 RedQX1 iteration     7 Try  1 RMS(Cart)=  0.00524707 RMS(Int)=  0.76645140 XScale=  1.00189264
 RedQX1 iteration     7 Try  2 RMS(Cart)=  0.00531297 RMS(Int)=  0.76773415 XScale=  1.00017304
 RedQX1 iteration     7 Try  3 RMS(Cart)=  0.00537535 RMS(Int)=  0.76895897 XScale=  0.99853963
 RedQX1 iteration     8 Try  1 RMS(Cart)=  0.00528934 RMS(Int)=  0.76893967 XScale=  0.99856531
 RedQX1 iteration     9 Try  1 RMS(Cart)=  0.00105787 RMS(Int)=  0.76797843 XScale=  0.99984670
 RedQX1 iteration     9 Try  2 RMS(Cart)=  0.00106022 RMS(Int)=  0.76822076 XScale=  0.99952330
 RedQX1 iteration     9 Try  3 RMS(Cart)=  0.00106255 RMS(Int)=  0.76846129 XScale=  0.99920263
 RedQX1 iteration     9 Try  4 RMS(Cart)=  0.00106487 RMS(Int)=  0.76870019 XScale=  0.99888447
 RedQX1 iteration    10 Try  1 RMS(Cart)=  0.00105976 RMS(Int)=  0.76869904 XScale=  0.99888599
 RedQX1 iteration    11 Try  1 RMS(Cart)=  0.00021195 RMS(Int)=  0.76850895 XScale=  0.99913913
 RedQX1 iteration    11 Try  2 RMS(Cart)=  0.00021204 RMS(Int)=  0.76855655 XScale=  0.99907573
 RedQX1 iteration    11 Try  3 RMS(Cart)=  0.00021214 RMS(Int)=  0.76860409 XScale=  0.99901242
 RedQX1 iteration    11 Try  4 RMS(Cart)=  0.00021223 RMS(Int)=  0.76865156 XScale=  0.99894922
 RedQX1 iteration    12 Try  1 RMS(Cart)=  0.00021202 RMS(Int)=  0.76865152 XScale=  0.99894928
 RedQX1 iteration    13 Try  1 RMS(Cart)=  0.00004240 RMS(Int)=  0.76861358 XScale=  0.99899979
 RedQX1 iteration    14 Try  1 RMS(Cart)=  0.00000848 RMS(Int)=  0.76860599 XScale=  0.99900990
 RedQX1 iteration    14 Try  2 RMS(Cart)=  0.00000848 RMS(Int)=  0.76860788 XScale=  0.99900737
 RedQX1 iteration    14 Try  3 RMS(Cart)=  0.00000848 RMS(Int)=  0.76860978 XScale=  0.99900484
 RedQX1 iteration    14 Try  4 RMS(Cart)=  0.00000848 RMS(Int)=  0.76861168 XScale=  0.99900232
 RedQX1 iteration    14 Try  5 RMS(Cart)=  0.00000848 RMS(Int)=  0.76861358 XScale=  0.99899979
 RedQX1 iteration    15 Try  1 RMS(Cart)=  0.00000848 RMS(Int)=  0.76861358 XScale=  0.99899979
 RedQX1 iteration    16 Try  1 RMS(Cart)=  0.00000170 RMS(Int)=  0.76861206 XScale=  0.99900181
 RedQX1 iteration    16 Try  2 RMS(Cart)=  0.00000170 RMS(Int)=  0.76861244 XScale=  0.99900130
 RedQX1 iteration    16 Try  3 RMS(Cart)=  0.00000170 RMS(Int)=  0.76861282 XScale=  0.99900080
 RedQX1 iteration    16 Try  4 RMS(Cart)=  0.00000170 RMS(Int)=  0.76861320 XScale=  0.99900029
 RedQX1 iteration    16 Try  5 RMS(Cart)=  0.00000170 RMS(Int)=  0.76861358 XScale=  0.99899979
 RedQX1 iteration    17 Try  1 RMS(Cart)=  0.00000170 RMS(Int)=  0.76861358 XScale=  0.99899979
 RedQX1 iteration    18 Try  1 RMS(Cart)=  0.00000034 RMS(Int)=  0.76861327 XScale=  0.99900019
 RedQX1 iteration    18 Try  2 RMS(Cart)=  0.00000034 RMS(Int)=  0.76861335 XScale=  0.99900009
 RedQX1 iteration    18 Try  3 RMS(Cart)=  0.00000034 RMS(Int)=  0.76861343 XScale=  0.99899999
 RedQX1 iteration    19 Try  1 RMS(Cart)=  0.00000034 RMS(Int)=  0.76861343 XScale=  0.99899999
 RedQX1 iteration    20 Try  1 RMS(Cart)=  0.00000007 RMS(Int)=  0.76861337 XScale=  0.99900007
 Iteration  1 RMS(Cart)=  0.35446735 RMS(Int)=  2.22526179
 Iteration  2 RMS(Cart)=  0.16937596 RMS(Int)=  2.19020628
 Iteration  3 RMS(Cart)=  0.12647205 RMS(Int)=  2.16309367
 Iteration  4 RMS(Cart)=  0.11378954 RMS(Int)=  2.13823159
 Iteration  5 RMS(Cart)=  0.10751077 RMS(Int)=  2.11335787
 Iteration  6 RMS(Cart)=  0.07901608 RMS(Int)=  2.09766620
 Iteration  7 RMS(Cart)=  0.05733421 RMS(Int)=  2.08490496
 Iteration  8 RMS(Cart)=  0.05000575 RMS(Int)=  2.07293736
 Iteration  9 RMS(Cart)=  0.04255933 RMS(Int)=  2.06451038
 Iteration 10 RMS(Cart)=  0.03802163 RMS(Int)=  2.05582786
 Iteration 11 RMS(Cart)=  0.03618133 RMS(Int)=  2.04749842
 Iteration 12 RMS(Cart)=  0.03518273 RMS(Int)=  2.03932892
 Iteration 13 RMS(Cart)=  0.03490586 RMS(Int)=  2.03111687
 Iteration 14 RMS(Cart)=  0.03493145 RMS(Int)=  2.02819276
 Iteration 15 RMS(Cart)=  0.09703892 RMS(Int)=  2.00602249
 Iteration 16 RMS(Cart)=  0.09233028 RMS(Int)=  1.98485108
 Iteration 17 RMS(Cart)=  0.05185766 RMS(Int)=  1.97848277
 Iteration 18 RMS(Cart)=  0.06159851 RMS(Int)=  1.96412952
 Iteration 19 RMS(Cart)=  0.08488233 RMS(Int)=  1.94437300
 Iteration 20 RMS(Cart)=  0.02565399 RMS(Int)=  1.93836877
 Iteration 21 RMS(Cart)=  0.02237503 RMS(Int)=  1.93292527
 Iteration 22 RMS(Cart)=  0.02117753 RMS(Int)=  1.92874051
 Iteration 23 RMS(Cart)=  0.02035143 RMS(Int)=  1.92182452
 Iteration 24 RMS(Cart)=  0.02040925 RMS(Int)=  1.91650062
 Iteration 25 RMS(Cart)=  0.01978686 RMS(Int)=  1.91138695
 Iteration 26 RMS(Cart)=  0.01893255 RMS(Int)=  1.90647552
 Iteration 27 RMS(Cart)=  0.01759390 RMS(Int)=  1.90081166
 Iteration 28 RMS(Cart)=  0.02018518 RMS(Int)=  1.89685079
 Iteration 29 RMS(Cart)=  0.01562414 RMS(Int)=  1.89152503
 Iteration 30 RMS(Cart)=  0.01827064 RMS(Int)=  1.88831595
 Iteration 31 RMS(Cart)=  0.01462454 RMS(Int)=  1.88437877
 Iteration 32 RMS(Cart)=  0.01410050 RMS(Int)=  1.87947144
 Iteration 33 RMS(Cart)=  0.01609215 RMS(Int)=  1.87644138
 Iteration 34 RMS(Cart)=  0.01318096 RMS(Int)=  1.87185663
 Iteration 35 RMS(Cart)=  0.01626379 RMS(Int)=  1.86864498
 Iteration 36 RMS(Cart)=  0.01328639 RMS(Int)=  1.87265077
 Iteration 37 RMS(Cart)=  0.03765788 RMS(Int)=  1.86352128
 Iteration 38 RMS(Cart)=  0.02959699 RMS(Int)=  1.85470207
 Iteration 39 RMS(Cart)=  0.02466812 RMS(Int)=  1.84937297
 Iteration 40 RMS(Cart)=  0.02097452 RMS(Int)=  1.84055215
 Iteration 41 RMS(Cart)=  0.02831396 RMS(Int)=  1.83623980
 Iteration 42 RMS(Cart)=  0.02742961 RMS(Int)=  1.82787289
 Iteration 43 RMS(Cart)=  0.02075695 RMS(Int)=  1.83165487
 Iteration 44 RMS(Cart)=  0.04012658 RMS(Int)=  1.82130510
 Iteration 45 RMS(Cart)=  0.03418095 RMS(Int)=  1.80867357
 Iteration 46 RMS(Cart)=  0.03976991 RMS(Int)=  1.79819030
 Iteration 47 RMS(Cart)=  0.02695528 RMS(Int)=  1.79113141
 Iteration 48 RMS(Cart)=  0.02785824 RMS(Int)=  1.78727439
 Iteration 49 RMS(Cart)=  0.03608330 RMS(Int)=  1.76986250
 Iteration 50 RMS(Cart)=  0.03476440 RMS(Int)=  1.76242706
 Iteration 51 RMS(Cart)=  0.03138208 RMS(Int)=  1.74675580
 Iteration 52 RMS(Cart)=  0.02265628 RMS(Int)=  1.74361447
 Iteration 53 RMS(Cart)=  0.01359600 RMS(Int)=  1.73841308
 Iteration 54 RMS(Cart)=  0.01321972 RMS(Int)=  1.72871060
 Iteration 55 RMS(Cart)=  0.01048743 RMS(Int)=  1.72951101
 Iteration 56 RMS(Cart)=  0.01039808 RMS(Int)=  1.72092618
 Iteration 57 RMS(Cart)=  0.00974620 RMS(Int)=  1.72186717
 Iteration 58 RMS(Cart)=  0.00981420 RMS(Int)=  1.71360337
 Iteration 59 RMS(Cart)=  0.00910208 RMS(Int)=  1.71455863
 Iteration 60 RMS(Cart)=  0.00968290 RMS(Int)=  1.70655921
 Iteration 61 RMS(Cart)=  0.00897639 RMS(Int)=  1.70531967
 Iteration 62 RMS(Cart)=  0.00729359 RMS(Int)=  1.70127495
 Iteration 63 RMS(Cart)=  0.00726590 RMS(Int)=  1.69911198
 Iteration 64 RMS(Cart)=  0.00723137 RMS(Int)=  1.69630200
 Iteration 65 RMS(Cart)=  0.00722451 RMS(Int)=  1.69295868
 Iteration 66 RMS(Cart)=  0.00717060 RMS(Int)=  1.69154527
 Iteration 67 RMS(Cart)=  0.00716683 RMS(Int)=  1.68666199
 Iteration 68 RMS(Cart)=  0.00661941 RMS(Int)=  1.68797866
 Iteration 69 RMS(Cart)=  0.00706863 RMS(Int)=  1.68129554
 Iteration 70 RMS(Cart)=  0.00656678 RMS(Int)=  1.68298781
 Iteration 71 RMS(Cart)=  0.00699024 RMS(Int)=  1.67598498
 Iteration 72 RMS(Cart)=  0.00651628 RMS(Int)=  1.67788851
 Iteration 73 RMS(Cart)=  0.00690890 RMS(Int)=  1.67070508
 Iteration 74 RMS(Cart)=  0.00646317 RMS(Int)=  1.67275800
 Iteration 75 RMS(Cart)=  0.00645848 RMS(Int)=  1.66559130
 Iteration 76 RMS(Cart)=  0.00641001 RMS(Int)=  1.66779179
 Iteration 77 RMS(Cart)=  0.00613254 RMS(Int)=  1.66058821
 Iteration 78 RMS(Cart)=  0.00557888 RMS(Int)=  1.66330255
 Iteration 79 RMS(Cart)=  0.00560822 RMS(Int)=  1.65610463
 Iteration 80 RMS(Cart)=  0.00553368 RMS(Int)=  1.65900273
 Iteration 81 RMS(Cart)=  0.00685643 RMS(Int)=  1.65112856
 Iteration 82 RMS(Cart)=  0.00548274 RMS(Int)=  1.65410833
 Iteration 83 RMS(Cart)=  0.00649133 RMS(Int)=  1.64630033
 Iteration 84 RMS(Cart)=  0.00542991 RMS(Int)=  1.64930946
 Iteration 85 RMS(Cart)=  0.00666395 RMS(Int)=  1.64140665
 Iteration 86 RMS(Cart)=  0.00537610 RMS(Int)=  1.64438110
 Iteration 87 RMS(Cart)=  0.00656744 RMS(Int)=  1.63433562
 Iteration 88 RMS(Cart)=  0.00984001 RMS(Int)=  1.63488435
 Iteration 89 RMS(Cart)=  0.00825296 RMS(Int)=  1.62587516
 Iteration 90 RMS(Cart)=  0.00943581 RMS(Int)=  1.62660310
 Iteration 91 RMS(Cart)=  0.00804707 RMS(Int)=  1.61764974
 Iteration 92 RMS(Cart)=  0.00930360 RMS(Int)=  1.62742124
 Iteration 93 RMS(Cart)=  0.01012051 RMS(Int)=  1.61799279
 Iteration 94 RMS(Cart)=  0.01100666 RMS(Int)=  1.61759420
 Iteration 95 RMS(Cart)=  0.00987379 RMS(Int)=  1.60862228
 Iteration 96 RMS(Cart)=  0.01032281 RMS(Int)=  1.60831497
 Iteration 97 RMS(Cart)=  0.00901323 RMS(Int)=  1.60373410
 Iteration 98 RMS(Cart)=  0.00891542 RMS(Int)=  1.59381735
 Iteration 99 RMS(Cart)=  0.00974720 RMS(Int)=  1.59481516
 Iteration100 RMS(Cart)=  0.00975881 RMS(Int)=  1.58580318
 New curvilinear step not converged.
 FormGI is forming the generalized inverse of G from B-inverse, IUseBI=4.
 RedQX1 iteration     1 Try  1 RMS(Cart)=  0.90495479 RMS(Int)=  2.08497082 XScale=  7.24013795
 RedQX1 iteration     1 Try  2 RMS(Cart)=  0.91010738 RMS(Int)=  2.04518157 XScale=  3.22768258
 RedQX1 iteration     1 Try  3 RMS(Cart)=  1.05427242 RMS(Int)=  2.11274000 XScale=  2.26553258
 RedQX1 iteration     1 Try  4 RMS(Cart)=  1.51539231 RMS(Int)=  2.70869345 XScale=  1.35333481
 RedQX1 iteration     1 Try  5 RMS(Cart)=  4.25945980 RMS(Int)=  4.85024521 XScale=  0.63630492
 RedQX1 iteration     2 Try  1 RMS(Cart)=  0.85189196 RMS(Int)=  3.11607105 XScale=  1.15975226
 RedQX1 iteration     2 Try  2 RMS(Cart)=  1.28441710 RMS(Int)=  3.69342614 XScale=  0.91712183
 RedQX1 iteration     3 Try  1 RMS(Cart)=  1.02753368 RMS(Int)=  3.55906029 XScale=  0.96021510
 RedQX1 iteration     4 Try  1 RMS(Cart)=  0.20550674 RMS(Int)=  3.19000238 XScale=  1.11584632
 RedQX1 iteration     4 Try  2 RMS(Cart)=  0.22279881 RMS(Int)=  3.28810034 XScale=  1.07174851
 RedQX1 iteration     4 Try  3 RMS(Cart)=  0.23075124 RMS(Int)=  3.38814963 XScale=  1.02861685
 RedQX1 iteration     4 Try  4 RMS(Cart)=  0.25547565 RMS(Int)=  3.51646383 XScale=  0.98211921
 RedQX1 iteration     5 Try  1 RMS(Cart)=  0.22481857 RMS(Int)=  3.50228804 XScale=  0.98761381
 RedQX1 iteration     6 Try  1 RMS(Cart)=  0.04496371 RMS(Int)=  3.40870299 XScale=  1.02033377
 RedQX1 iteration     6 Try  2 RMS(Cart)=  0.04565073 RMS(Int)=  3.44101946 XScale=  1.01195880
 RedQX1 iteration     6 Try  3 RMS(Cart)=  0.04611905 RMS(Int)=  3.46212758 XScale=  1.00354095
 RedQX1 iteration     6 Try  4 RMS(Cart)=  0.04682487 RMS(Int)=  3.48333800 XScale=  0.99504178
 RedQX1 iteration     7 Try  1 RMS(Cart)=  0.04570108 RMS(Int)=  3.48282209 XScale=  0.99524383
 RedQX1 iteration     8 Try  1 RMS(Cart)=  0.00914022 RMS(Int)=  3.46632312 XScale=  1.00187626
 RedQX1 iteration     8 Try  2 RMS(Cart)=  0.00916746 RMS(Int)=  3.47053645 XScale=  1.00020747
 RedQX1 iteration     8 Try  3 RMS(Cart)=  0.00919481 RMS(Int)=  3.47476771 XScale=  0.99853463
 RedQX1 iteration     9 Try  1 RMS(Cart)=  0.00916538 RMS(Int)=  3.47475416 XScale=  0.99853998
 RedQX1 iteration    10 Try  1 RMS(Cart)=  0.00183308 RMS(Int)=  3.47137945 XScale=  0.99987395
 RedQX1 iteration    10 Try  2 RMS(Cart)=  0.00183417 RMS(Int)=  3.47222317 XScale=  0.99954027
 RedQX1 iteration    10 Try  3 RMS(Cart)=  0.00183526 RMS(Int)=  3.47306761 XScale=  0.99920642
 RedQX1 iteration    10 Try  4 RMS(Cart)=  0.00183635 RMS(Int)=  3.47391277 XScale=  0.99887242
 RedQX1 iteration    11 Try  1 RMS(Cart)=  0.00183459 RMS(Int)=  3.47391196 XScale=  0.99887274
 RedQX1 iteration    12 Try  1 RMS(Cart)=  0.00036692 RMS(Int)=  3.47323646 XScale=  0.99913969
 RedQX1 iteration    12 Try  2 RMS(Cart)=  0.00036696 RMS(Int)=  3.47340533 XScale=  0.99907294
 RedQX1 iteration    12 Try  3 RMS(Cart)=  0.00036700 RMS(Int)=  3.47357424 XScale=  0.99900619
 RedQX1 iteration    12 Try  4 RMS(Cart)=  0.00036705 RMS(Int)=  3.47374317 XScale=  0.99893943
 RedQX1 iteration    13 Try  1 RMS(Cart)=  0.00036698 RMS(Int)=  3.47374314 XScale=  0.99893945
 RedQX1 iteration    14 Try  1 RMS(Cart)=  0.00007340 RMS(Int)=  3.47360802 XScale=  0.99899284
 RedQX1 iteration    15 Try  1 RMS(Cart)=  0.00001468 RMS(Int)=  3.47358100 XScale=  0.99900352
 RedQX1 iteration    15 Try  2 RMS(Cart)=  0.00001468 RMS(Int)=  3.47358775 XScale=  0.99900085
 RedQX1 iteration    15 Try  3 RMS(Cart)=  0.00001468 RMS(Int)=  3.47359451 XScale=  0.99899818
 RedQX1 iteration    16 Try  1 RMS(Cart)=  0.00001468 RMS(Int)=  3.47359451 XScale=  0.99899818
 RedQX1 iteration    17 Try  1 RMS(Cart)=  0.00000294 RMS(Int)=  3.47358910 XScale=  0.99900032
 RedQX1 iteration    17 Try  2 RMS(Cart)=  0.00000294 RMS(Int)=  3.47359045 XScale=  0.99899978
 RedQX1 iteration    18 Try  1 RMS(Cart)=  0.00000294 RMS(Int)=  3.47359045 XScale=  0.99899978
 RedQX1 iteration    19 Try  1 RMS(Cart)=  0.00000059 RMS(Int)=  3.47358937 XScale=  0.99900021
 RedQX1 iteration    19 Try  2 RMS(Cart)=  0.00000059 RMS(Int)=  3.47358964 XScale=  0.99900010
 RedQX1 iteration    19 Try  3 RMS(Cart)=  0.00000059 RMS(Int)=  3.47358991 XScale=  0.99900000
 RedQX1 iteration    20 Try  1 RMS(Cart)=  0.00000059 RMS(Int)=  3.47358991 XScale=  0.99900000
 Old curvilinear step not converged, using linear step:
 SCX= 2.72D+01 DXMaxT= 4.94-324 SCLim= 0.00D+00 Fact= 0.00D+00
 RedCar/ORedCr failed for GTrans.
 Error termination via Lnk1e in /home1/apps/gaussian/16rA.03/g16/l101.exe at Sat Oct 22 00:25:17 2022.
 Job cpu time:       0 days  0 hours  0 minutes 35.3 seconds.
 Elapsed time:       0 days  0 hours  0 minutes  4.7 seconds.
 File lengths (MBytes):  RWF=      6 Int=      0 D2E=      0 Chk=      1 Scr=      1
