61
	Energy: -3853052.9016204
Mn         2.24428       -1.55798       -1.06055
C          3.00454       -3.23619       -0.98306
O          3.47056       -4.27654       -0.97403
C          3.72714       -0.93935       -1.98419
O          4.62303       -0.59869       -2.59788
C          1.44993       -1.98019       -2.61675
N          1.52144        0.41969       -0.98364
C          1.93229        2.70293       -0.38860
C          0.62223        3.04822       -0.70712
C          0.28326        0.77315       -1.34079
H          2.64838        3.43863       -0.02101
H          0.26554        4.07259       -0.57965
N          2.60705       -0.53680        1.93258
C          1.70925        0.01704        2.41027
C          0.55201        0.67922        2.94503
C         -0.42673       -0.07022        3.61412
C         -1.57139        0.56392        4.08458
C          0.39125        2.06006        2.76394
H         -0.28587       -1.14145        3.76021
H          1.16637        2.63579        2.25797
N          0.65925       -2.27837        0.15379
C         -0.02776       -3.41482        2.14883
C         -1.36507       -3.13896        1.87345
H          0.26419       -3.96678        3.04232
C          2.33894        1.38307       -0.51796
H          3.36112        1.10924       -0.23574
C          0.95001       -2.95454        1.28061
H          2.00464       -3.12394        1.49968
H         -2.33725       -0.01613        4.60213
O          0.91411       -2.23309       -3.59489
S         -2.40158        0.59456        0.50097
S         -5.39874        1.16993       -0.41741
C         -0.23589        2.05760       -1.18517
C         -1.65576        2.32632       -1.53991
C         -1.95107        3.26552       -2.53395
C         -3.26709        3.51819       -2.91138
C         -4.31208        2.83412       -2.29808
C         -4.03921        1.92522       -1.27307
C         -2.71642        1.66567       -0.88853
H         -1.13013        3.78630       -3.03103
H         -3.47959        4.24211       -3.69978
H         -5.34542        3.01030       -2.60309
C         -3.49837       -0.76416        0.14374
C         -4.81984       -0.49876       -0.24280
C         -5.72442       -1.54542       -0.43652
C         -5.32431       -2.85736       -0.20352
C         -4.01382       -3.12861        0.17949
C         -3.08152       -2.09687        0.33634
H         -6.74387       -1.32530       -0.75915
H         -6.03460       -3.67488       -0.33729
H         -3.69409       -4.16062        0.33809
C         -1.68206       -2.43579        0.71213
H         -2.15333       -3.45854        2.55839
C         -0.62923       -2.06723       -0.12624
H         -0.86311       -1.59138       -1.07528
H         -0.34530        0.00978       -1.79424
C         -1.74012        1.93570        3.89210
C         -0.76018        2.68167        3.23660
H         -0.89145        3.75555        3.09379
H         -2.64351        2.42796        4.25729
Br         5.84710        1.84196        0.53878
