61
	Energy: -3853074.6035773
Mn        -2.07500       -1.58743       -1.06171
C         -3.08435       -1.32061       -2.55252
O         -3.71750       -1.14518       -3.48879
C         -2.84661       -3.20234       -0.72789
O         -3.32874       -4.21583       -0.50724
C         -0.81435       -2.37993       -2.06083
N         -0.92294       -1.75174        0.76321
C         -0.74230       -1.73893        3.15414
C          0.64656       -1.81416        3.08094
C          0.40694       -1.87144        0.70632
H         -1.25528       -1.69387        4.11501
H          1.25788       -1.81731        3.98571
N         -5.23372        3.23301        1.57504
C         -4.08026        3.20386        1.67196
C         -2.64604        3.17246        1.78400
C         -1.91395        4.36482        1.69159
C         -0.52554        4.32320        1.77509
C         -1.99041        1.94620        1.96382
H         -2.43357        5.31397        1.55063
H         -2.57348        1.02506        2.00760
N         -1.18935        0.36941       -1.29163
C         -1.35249        2.75611       -1.43019
C          0.02621        2.87270       -1.57351
H         -1.99459        3.63675       -1.41318
C         -1.48606       -1.69757        1.98173
H         -2.57277       -1.60472        2.00445
C         -1.91818        1.49709       -1.27767
H         -2.99136        1.37574       -1.12391
H          0.04927        5.24807        1.70137
O         -0.05470       -2.91850       -2.73575
S          2.53422        0.70493        0.78854
S          5.65815        0.50243        0.16213
C          1.24412       -1.87420        1.82272
C          2.71905       -1.92294        1.61351
C          3.44683       -3.06886        1.94758
C          4.81497       -3.14080        1.69369
C          5.47631       -2.06992        1.09846
C          4.77364       -0.90017        0.79924
C          3.39954       -0.82247        1.05942
H          2.92533       -3.91956        2.39094
H          5.36876       -4.04685        1.94547
H          6.54294       -2.13305        0.87430
C          3.15191        1.18617       -0.80714
C          4.52845        1.11903       -1.06322
C          5.04122        1.59405       -2.27257
C          4.18521        2.17158       -3.20583
C          2.81545        2.22600       -2.96062
C          2.27571        1.71324       -1.77571
H          6.11176        1.51945       -2.47339
H          4.58732        2.56178       -4.14233
H          2.14221        2.64708       -3.71019
C          0.79776        1.71045       -1.58646
H          0.49858        3.85254       -1.67044
C          0.13024        0.49178       -1.46561
H          0.71315       -0.42524       -1.53065
H          0.86027       -1.97509       -0.27880
C          0.12871        3.10310        1.94944
C         -0.60262        1.91900        2.04446
H         -0.08712        0.96522        2.16910
H          1.21884        3.07311        2.00792
Br        -4.15359       -0.60666        0.19944
