 Entering Gaussian System, Link 0=g16
 Initial command:
 /home1/apps/gaussian/16rA.03/g16/l1.exe "/tmp/Gau-273537.inp" -scrdir="/tmp/"
 Entering Link 1 = /home1/apps/gaussian/16rA.03/g16/l1.exe PID=    273538.
  
 Copyright (c) 1988,1990,1992,1993,1995,1998,2003,2009,2016,
            Gaussian, Inc.  All Rights Reserved.
  
 This is part of the Gaussian(R) 16 program.  It is based on
 the Gaussian(R) 09 system (copyright 2009, Gaussian, Inc.),
 the Gaussian(R) 03 system (copyright 2003, Gaussian, Inc.),
 the Gaussian(R) 98 system (copyright 1998, Gaussian, Inc.),
 the Gaussian(R) 94 system (copyright 1995, Gaussian, Inc.),
 the Gaussian 92(TM) system (copyright 1992, Gaussian, Inc.),
 the Gaussian 90(TM) system (copyright 1990, Gaussian, Inc.),
 the Gaussian 88(TM) system (copyright 1988, Gaussian, Inc.),
 the Gaussian 86(TM) system (copyright 1986, Carnegie Mellon
 University), and the Gaussian 82(TM) system (copyright 1983,
 Carnegie Mellon University). Gaussian is a federally registered
 trademark of Gaussian, Inc.
  
 This software contains proprietary and confidential information,
 including trade secrets, belonging to Gaussian, Inc.
  
 This software is provided under written license and may be
 used, copied, transmitted, or stored only in accord with that
 written license.
  
 The following legend is applicable only to US Government
 contracts under FAR:
  
                    RESTRICTED RIGHTS LEGEND
  
 Use, reproduction and disclosure by the US Government is
 subject to restrictions as set forth in subparagraphs (a)
 and (c) of the Commercial Computer Software - Restricted
 Rights clause in FAR 52.227-19.
  
 Gaussian, Inc.
 340 Quinnipiac St., Bldg. 40, Wallingford CT 06492
  
  
 ---------------------------------------------------------------
 Warning -- This program may not be used in any manner that
 competes with the business of Gaussian, Inc. or will provide
 assistance to any competitor of Gaussian, Inc.  The licensee
 of this program is prohibited from giving any competitor of
 Gaussian, Inc. access to this program.  By using this program,
 the user acknowledges that Gaussian, Inc. is engaged in the
 business of creating and licensing software in the field of
 computational chemistry and represents and warrants to the
 licensee that it is not a competitor of Gaussian, Inc. and that
 it will not use this program in any manner prohibited above.
 ---------------------------------------------------------------
  

 Cite this work as:
 Gaussian 16, Revision A.03,
 M. J. Frisch, G. W. Trucks, H. B. Schlegel, G. E. Scuseria, 
 M. A. Robb, J. R. Cheeseman, G. Scalmani, V. Barone, 
 G. A. Petersson, H. Nakatsuji, X. Li, M. Caricato, A. V. Marenich, 
 J. Bloino, B. G. Janesko, R. Gomperts, B. Mennucci, H. P. Hratchian, 
 J. V. Ortiz, A. F. Izmaylov, J. L. Sonnenberg, D. Williams-Young, 
 F. Ding, F. Lipparini, F. Egidi, J. Goings, B. Peng, A. Petrone, 
 T. Henderson, D. Ranasinghe, V. G. Zakrzewski, J. Gao, N. Rega, 
 G. Zheng, W. Liang, M. Hada, M. Ehara, K. Toyota, R. Fukuda, 
 J. Hasegawa, M. Ishida, T. Nakajima, Y. Honda, O. Kitao, H. Nakai, 
 T. Vreven, K. Throssell, J. A. Montgomery, Jr., J. E. Peralta, 
 F. Ogliaro, M. J. Bearpark, J. J. Heyd, E. N. Brothers, K. N. Kudin, 
 V. N. Staroverov, T. A. Keith, R. Kobayashi, J. Normand, 
 K. Raghavachari, A. P. Rendell, J. C. Burant, S. S. Iyengar, 
 J. Tomasi, M. Cossi, J. M. Millam, M. Klene, C. Adamo, R. Cammi, 
 J. W. Ochterski, R. L. Martin, K. Morokuma, O. Farkas, 
 J. B. Foresman, and D. J. Fox, Gaussian, Inc., Wallingford CT, 2016.
 
 ******************************************
 Gaussian 16:  ES64L-G16RevA.03 25-Dec-2016
                17-Feb-2023 
 ******************************************
 %Chk=checkpoint.chk
 %NProcShared=12
 Will use up to   12 processors via shared memory.
 -----------------------------------------------------
 #wB97XD Gen Opt=(QST3) SCRF=(Solvent=TetraHydroFuran)
 -----------------------------------------------------
 1/5=1,18=20,26=3,27=203,38=1/1,3;
 2/9=110,12=2,17=6,18=5,40=1/2;
 3/5=7,11=2,25=1,30=1,70=2201,71=1,72=20,74=-58/1,2,3;
 4//1;
 5/5=2,38=5,53=20/2;
 6/7=2,8=2,9=2,10=2,28=1/1;
 7//1,2,3,16;
 1/5=1,18=20,26=3,27=203/3(2);
 2/9=110/2;
 99//99;
 2/9=110/2;
 3/5=7,6=1,11=2,25=1,30=1,70=2205,71=1,72=20,74=-58,82=7/1,2,3;
 4/5=5,16=3,69=1/1;
 5/5=2,38=5,53=20/2;
 7//1,2,3,16;
 1/5=1,18=20,26=3,27=203/3(-5);
 2/9=110/2;
 6/7=2,8=2,9=2,10=2,19=2,28=1/1;
 99/9=1/99;
 ------------------------------------
 Anthracene Transition State Reactant
 ------------------------------------
 Symbolic Z-matrix:
 Charge =  0 Multiplicity = 1
 Mn                   -1.0194   -0.13282  -1.30041 
 C                    -1.95084   1.09527  -2.29845 
 O                    -2.50101   1.87539  -2.92239 
 C                    -1.94096  -1.55093  -2.01671 
 O                    -2.47772  -2.45176  -2.46467 
 C                     0.20025  -0.27236  -2.6431 
 N                     0.04927  -1.53221  -0.03083 
 C                     0.07866  -3.04556   1.8282 
 C                     1.46702  -3.1228    1.77993 
 C                     1.37634  -1.67638  -0.11513 
 H                    -0.49205  -3.5931    2.57846 
 H                     2.01871  -3.71611   2.51212 
 N                    -2.37065   0.02942   0.19031 
 C                    -3.16697   0.13023   1.0198 
 C                    -4.10539   0.2658    2.09209 
 C                    -3.6202    0.43566   3.39952 
 C                    -4.52704   0.57079   4.44399 
 C                    -5.48203   0.23058   1.82486 
 H                    -2.54534   0.46071   3.58681 
 H                    -5.82775   0.09615   0.79488 
 N                     0.05018   1.50245  -0.35369 
 C                     0.08073   3.37421   1.14383 
 C                     1.47006   3.42805   1.09346 
 H                    -0.49002   4.07266   1.75603 
 C                    -0.58809  -2.23239   0.92237 
 H                    -1.67251  -2.14107   0.96102 
 C                    -0.58735   2.39419   0.42298 
 H                    -1.67305   2.32336   0.46813 
 H                    -4.16287   0.70328   5.46409 
 O                     0.94147  -0.36186  -3.51126 
 C                     3.71034   0.05692   0.59661 
 C                     6.44285   0.00195   0.07986 
 C                     2.14993  -2.41932   0.78562 
 C                     3.63318  -2.42875   0.67238 
 C                     4.33237  -3.60918   0.65808 
 C                     5.74721  -3.62943   0.48325 
 C                     6.44286  -2.47015   0.28898 
 C                     5.76733  -1.20725   0.29051 
 C                     4.35206  -1.18133   0.52939 
 H                     3.79554  -4.55679   0.74485 
 H                     6.26618  -4.58974   0.47691 
 H                     7.52231  -2.48926   0.12265 
 C                     4.35394   1.25516   0.28141 
 C                     5.76945   1.23001   0.04342 
 C                     6.44775   2.46555  -0.21061 
 C                     5.75436   3.64152  -0.25402 
 C                     4.33929   3.65908  -0.08147 
 C                     3.63726   2.50702   0.16895 
 H                     7.52743   2.44868  -0.37582 
 H                     6.27529   4.58008  -0.45221 
 H                     3.80437   4.6056   -0.18931 
 C                     2.15352   2.52607   0.2752 
 H                     2.02229   4.15802   1.68899 
 C                     1.37923   1.61496  -0.45427 
 H                     1.87683   0.94259  -1.1522 
 H                     1.87309  -1.17143  -0.94303 
 C                    -5.89955   0.53687   4.18594 
 C                    -6.37363   0.36773   2.88435 
 H                    -7.44706   0.34214   2.68994 
 H                    -6.60706   0.64379   5.01079 
 Br                   -5.87537  -0.28615  -1.89241 
 H                     7.52454  -0.01473  -0.07653 
 H                     2.66679   0.08836   0.89635 
 
 Add virtual bond connecting atoms Br61       and H20        Dist= 5.13D+00.
 -----------------------------------
 Anthracene Transition State Product
 -----------------------------------
 Symbolic Z-matrix:
 Charge =  0 Multiplicity = 1
 Mn                   -1.44286   0.16026  -2.01412 
 C                    -2.20443   1.54882  -2.90891 
 O                    -2.68366   2.42731  -3.46349 
 C                    -2.21304  -1.07612  -3.10367 
 O                    -2.69804  -1.85971  -3.78172 
 C                    -0.01408   0.23546  -3.09485 
 N                    -0.60049  -1.44099  -0.81185 
 C                    -0.82342  -3.27125   0.71581 
 C                     0.55737  -3.36677   0.85296 
 C                     0.7252   -1.5913   -0.72767 
 H                    -1.48955  -3.94449   1.25661 
 H                     1.00241  -4.09964   1.52935 
 N                     0.0775   -0.17244   2.4041 
 C                    -1.05369  -0.19765   2.64732 
 C                    -2.45976  -0.23136   2.94445 
 C                    -3.12645  -1.4621    3.01383 
 C                    -4.49389  -1.48788   3.26678 
 C                    -3.15853   0.96659   3.1448 
 H                    -2.5722   -2.38909   2.86463 
 H                    -2.62937   1.91849   3.09601 
 N                    -0.59083   1.56154  -0.58857 
 C                    -0.80429   3.1413    1.19825 
 C                     0.5769    3.20654   1.34817 
 H                    -1.46646   3.7285    1.83564 
 C                    -1.3638   -2.28301  -0.09733 
 H                    -2.44255  -2.14076  -0.17604 
 C                    -1.34964   2.291     0.24463 
 H                    -2.42913   2.16919   0.14486 
 H                    -5.01736  -2.44419   3.31559 
 O                     0.86165   0.2873   -3.83871 
 C                     2.91235  -0.04746   0.58557 
 C                     5.69235  -0.04273   0.41158 
 C                     1.36924  -2.49754   0.12252 
 C                     2.85402  -2.5063    0.21569 
 C                     3.56205  -3.67493   0.08887 
 C                     4.98786  -3.68132   0.09599 
 C                     5.69088  -2.51399   0.19056 
 C                     5.00769  -1.26191   0.32192 
 C                     3.57322  -1.26107   0.38259 
 H                     3.02896  -4.61681  -0.06081 
 H                     5.51371  -4.63251  -0.00729 
 H                     6.783    -2.51728   0.16154 
 C                     3.58071   1.17889   0.56648 
 C                     5.01522   1.18024   0.5065 
 C                     5.70587   2.43375   0.56536 
 C                     5.00976   3.60611   0.64834 
 C                     3.58394   3.60941   0.64 
 C                     2.86897   2.43926   0.58848 
 H                     6.79801   2.43509   0.53708 
 H                     5.54131   4.55882   0.69009 
 H                     3.05653   4.56629   0.63458 
 C                     1.38429   2.45343   0.49431 
 H                     1.02578   3.82526   2.12808 
 C                     0.73572   1.68987  -0.48314 
 H                     1.34033   1.15471  -1.214 
 H                     1.33286  -0.9558   -1.37019 
 C                    -5.19354  -0.29487   3.45284 
 C                    -4.52569   0.92909   3.39758 
 H                    -5.07398   1.86057   3.54798 
 H                    -6.26798  -0.31941   3.64516 
 Br                   -3.72263   0.07153  -0.71897 
 H                     1.84487  -0.05936   0.78995 
 H                     6.78538  -0.04496   0.39399 
 
 Add virtual bond connecting atoms N7         and Mn1        Dist= 4.11D+00.
 Add virtual bond connecting atoms N21        and Mn1        Dist= 4.11D+00.
 Add virtual bond connecting atoms H11        and H19        Dist= 4.70D+00.
 Add virtual bond connecting atoms H24        and H20        Dist= 4.71D+00.
 Add virtual bond connecting atoms H62        and N13        Dist= 4.53D+00.
 -----------------------------------------
 Anthracene Transition State Initial Guess
 -----------------------------------------
 Symbolic Z-matrix:
 Charge =  0 Multiplicity = 1
 Mn                   -1.10481  -0.21588  -2.07978 
 C                    -1.86978   1.02394  -3.19226 
 O                    -2.20044   1.8095   -3.95676 
 C                    -1.81464  -1.63206  -2.99854 
 O                    -2.09661  -2.53913  -3.6381 
 C                     0.25464  -0.26504  -3.21405 
 N                    -0.19526  -1.73091  -0.82509 
 C                    -0.51021  -3.46145   0.80056 
 C                     0.83751  -3.41013   1.14782 
 C                     1.11224  -1.76541  -0.55844 
 H                    -1.19905  -4.14471   1.30229 
 H                     1.22616  -4.03923   1.95288 
 N                    -2.10804  -0.05185   0.07074 
 C                    -2.48629   0.09882   1.15177 
 C                    -2.99252   0.32858   2.47843 
 C                    -2.10394   0.5496    3.5381 
 C                    -2.60784   0.78649   4.81573 
 C                    -4.37625   0.3417    2.6923 
 H                    -1.02949   0.53786   3.35311 
 H                    -5.05325   0.16825   1.85424 
 N                    -0.23168   1.49709  -1.06429 
 C                    -0.58135   3.42926   0.30513 
 C                     0.76731   3.45671   0.6493 
 H                    -1.2835    4.15872   0.71175 
 C                    -0.98855  -2.59813  -0.17409 
 H                    -2.05094  -2.57954  -0.43029 
 C                    -1.04189   2.43056  -0.54128 
 H                    -2.10307   2.35429  -0.79032 
 H                    -1.92196   0.96354   5.64629 
 O                     1.10749  -0.29355  -3.9894 
 C                     3.13579   0.04086   0.75008 
 C                     5.91052   0.08868   0.99151 
 C                     1.68861  -2.54445   0.45458 
 C                     3.14733  -2.46009   0.75128 
 C                     3.88344  -3.60818   0.90434 
 C                     5.29346  -3.57095   1.12514 
 C                     5.96138  -2.38117   1.14904 
 C                     5.2496   -1.14644   0.98872 
 C                     3.82068  -1.17631   0.83552 
 H                     3.38947  -4.58037   0.81919 
 H                     5.83627  -4.51201   1.24413 
 H                     7.0468   -2.34764   1.2826 
 C                     3.79601   1.27091   0.64691 
 C                     5.22539   1.29443   0.7983 
 C                     5.91303   2.55338   0.7615 
 C                     5.22223   3.71118   0.55507 
 C                     3.81085   3.68582   0.34089 
 C                     3.09703   2.51313   0.37278 
 H                     6.99926   2.56342   0.8948 
 H                     5.74783   4.66966   0.52328 
 H                     3.29645   4.62244   0.10965 
 C                     1.63561   2.5229    0.07868 
 H                     1.14429   4.1974    1.3603 
 C                     1.07422   1.59505  -0.80963 
 H                     1.72646   0.89975  -1.33776 
 H                     1.75401  -1.13848  -1.17894 
 C                    -3.98416   0.80023   5.03317 
 C                    -4.86588   0.57819   3.97538 
 H                    -5.94206   0.59115   4.15045 
 H                    -4.37499   0.98687   6.03883 
 Br                   -4.14004  -0.29001  -2.11621 
 H                     6.996     0.11092   1.13318 
 H                     2.04751   0.02928   0.75431 
 

 GradGradGradGradGradGradGradGradGradGradGradGradGradGradGradGradGradGrad
 Berny optimization.
 Initialization pass.
                           ----------------------------
                           !    Initial Parameters    !
                           ! (Angstroms and Degrees)  !
 --------------------------                            --------------------------
 ! Name  Definition         TS        Reactant Product Derivative Info.         !
 --------------------------------------------------------------------------------
 ! R1    R(1,2)             1.833     1.8363    1.819  estimate D2E/DX2         !
 ! R2    R(1,4)             1.8313    1.8367    1.819  estimate D2E/DX2         !
 ! R3    R(1,6)             1.7712    1.8193    1.7931 estimate D2E/DX2         !
 ! R4    R(1,7)             2.1672    2.1708    2.1723 estimate D2E/DX2         !
 ! R5    R(1,13)            2.3787    2.0185    4.6843 estimate D2E/DX2         !
 ! R6    R(1,21)            2.1743    2.1713    2.173  estimate D2E/DX2         !
 ! R7    R(1,61)            3.0364    4.8943    2.6235 estimate D2E/DX2         !
 ! R8    R(2,3)             1.1449    1.1404    1.1441 estimate D2E/DX2         !
 ! R9    R(4,5)             1.1451    1.1403    1.1441 estimate D2E/DX2         !
 ! R10   R(6,30)            1.153     1.145     1.1502 estimate D2E/DX2         !
 ! R11   R(7,10)            1.3349    1.3375    1.3368 estimate D2E/DX2         !
 ! R12   R(7,25)            1.3436    1.3435    1.3425 estimate D2E/DX2         !
 ! R13   R(8,9)             1.3927    1.3913    1.3909 estimate D2E/DX2         !
 ! R14   R(8,11)            1.0923    1.0901    1.0906 estimate D2E/DX2         !
 ! R15   R(8,25)            1.3871    1.3879    1.3892 estimate D2E/DX2         !
 ! R16   R(9,12)            1.0931    1.092     1.0921 estimate D2E/DX2         !
 ! R17   R(9,33)            1.398     1.3964    1.3958 estimate D2E/DX2         !
 ! R18   R(10,33)           1.4019    1.4006    1.3996 estimate D2E/DX2         !
 ! R19   R(10,56)           1.0908    1.0896    1.089  estimate D2E/DX2         !
 ! R20   R(11,19)           5.1148    4.6547    2.4854 estimate D2E/DX2         !
 ! R21   R(13,14)           1.1552    1.1543    1.1573 estimate D2E/DX2         !
 ! R22   R(13,62)           9.1673    9.8989    2.3962 estimate D2E/DX2         !
 ! R23   R(14,15)           1.4384    1.4314    1.4375 estimate D2E/DX2         !
 ! R24   R(15,16)           1.4005    1.4049    1.4014 estimate D2E/DX2         !
 ! R25   R(15,18)           1.4002    1.4028    1.4013 estimate D2E/DX2         !
 ! R26   R(16,17)           1.3937    1.3898    1.3909 estimate D2E/DX2         !
 ! R27   R(16,19)           1.0903    1.0913    1.0903 estimate D2E/DX2         !
 ! R28   R(17,29)           1.0916    1.0912    1.0913 estimate D2E/DX2         !
 ! R29   R(17,57)           1.3935    1.397     1.3955 estimate D2E/DX2         !
 ! R30   R(18,20)           1.0912    1.0947    1.0902 estimate D2E/DX2         !
 ! R31   R(18,58)           1.3935    1.3915    1.3908 estimate D2E/DX2         !
 ! R32   R(20,24)           5.6072    6.7252    2.4934 estimate D2E/DX2         !
 ! R33   R(20,61)           4.0998    2.7148    4.3773 estimate D2E/DX2         !
 ! R34   R(21,27)           1.3421    1.3435    1.3424 estimate D2E/DX2         !
 ! R35   R(21,54)           1.3341    1.3376    1.3369 estimate D2E/DX2         !
 ! R36   R(22,23)           1.3922    1.3913    1.3908 estimate D2E/DX2         !
 ! R37   R(22,24)           1.0911    1.0901    1.0907 estimate D2E/DX2         !
 ! R38   R(22,27)           1.3878    1.3879    1.3892 estimate D2E/DX2         !
 ! R39   R(23,52)           1.397     1.3965    1.3958 estimate D2E/DX2         !
 ! R40   R(23,53)           1.0937    1.092     1.092  estimate D2E/DX2         !
 ! R41   R(25,26)           1.093     1.0889    1.0909 estimate D2E/DX2         !
 ! R42   R(27,28)           1.0927    1.0889    1.0909 estimate D2E/DX2         !
 ! R43   R(31,39)           1.3992    1.3963    1.3967 estimate D2E/DX2         !
 ! R44   R(31,43)           1.3998    1.3962    1.3968 estimate D2E/DX2         !
 ! R45   R(31,62)           3.8798    3.8738    1.0869 estimate D2E/DX2         !
 ! R46   R(31,63)           1.0884    1.0862    3.8778 estimate D2E/DX2         !
 ! R47   R(32,38)           1.4008    1.401     1.4011 estimate D2E/DX2         !
 ! R48   R(32,44)           1.4002    1.401     1.4011 estimate D2E/DX2         !
 ! R49   R(32,62)           1.0949    1.0931    3.8661 estimate D2E/DX2         !
 ! R50   R(32,63)           3.8707    3.8643    1.0932 estimate D2E/DX2         !
 ! R51   R(33,34)           1.491     1.4876    1.4877 estimate D2E/DX2         !
 ! R52   R(34,35)           1.3724    1.372     1.3723 estimate D2E/DX2         !
 ! R53   R(34,39)           1.4521    1.4468    1.4477 estimate D2E/DX2         !
 ! R54   R(35,36)           1.4277    1.4257    1.4258 estimate D2E/DX2         !
 ! R55   R(35,40)           1.0938    1.0926    1.0926 estimate D2E/DX2         !
 ! R56   R(36,37)           1.3646    1.3659    1.366  estimate D2E/DX2         !
 ! R57   R(36,41)           1.0929    1.0916    1.0918 estimate D2E/DX2         !
 ! R58   R(37,38)           1.4342    1.4322    1.4324 estimate D2E/DX2         !
 ! R59   R(37,42)           1.0941    1.0924    1.0925 estimate D2E/DX2         !
 ! R60   R(38,39)           1.4374    1.4355    1.4358 estimate D2E/DX2         !
 ! R61   R(43,44)           1.4376    1.4356    1.4358 estimate D2E/DX2         !
 ! R62   R(43,48)           1.4515    1.4469    1.4476 estimate D2E/DX2         !
 ! R63   R(44,45)           1.435     1.4322    1.4324 estimate D2E/DX2         !
 ! R64   R(45,46)           1.3639    1.3659    1.366  estimate D2E/DX2         !
 ! R65   R(45,49)           1.0944    1.0924    1.0925 estimate D2E/DX2         !
 ! R66   R(46,47)           1.4278    1.4257    1.4258 estimate D2E/DX2         !
 ! R67   R(46,50)           1.0936    1.0916    1.0918 estimate D2E/DX2         !
 ! R68   R(47,48)           1.3732    1.3722    1.3723 estimate D2E/DX2         !
 ! R69   R(47,51)           1.0933    1.0926    1.0926 estimate D2E/DX2         !
 ! R70   R(48,52)           1.4907    1.4877    1.4877 estimate D2E/DX2         !
 ! R71   R(52,54)           1.4018    1.4006    1.3997 estimate D2E/DX2         !
 ! R72   R(54,55)           1.0899    1.0894    1.0891 estimate D2E/DX2         !
 ! R73   R(57,58)           1.3949    1.3955    1.3954 estimate D2E/DX2         !
 ! R74   R(57,60)           1.095     1.092     1.0918 estimate D2E/DX2         !
 ! R75   R(58,59)           1.0904    1.0912    1.0913 estimate D2E/DX2         !
 ! A1    A(2,1,4)          93.2567   92.8602   92.6906 estimate D2E/DX2         !
 ! A2    A(2,1,6)          87.1582   89.4398   90.2928 estimate D2E/DX2         !
 ! A3    L(2,1,7,4,-1)    178.2383  181.5632  182.3854 estimate D2E/DX2         !
 ! A4    L(2,1,7,4,-2)    178.9138  182.4131  183.4865 estimate D2E/DX2         !
 ! A5    A(2,1,13)        109.0289   90.4629  130.8496 estimate D2E/DX2         !
 ! A6    A(2,1,21)         85.3064   89.035    89.6911 estimate D2E/DX2         !
 ! A7    A(2,1,61)         65.9243   56.7659   84.5395 estimate D2E/DX2         !
 ! A8    A(4,1,6)          87.4066   89.3883   90.279  estimate D2E/DX2         !
 ! A9    A(4,1,7)          84.9816   88.703    89.6949 estimate D2E/DX2         !
 ! A10   A(4,1,13)        110.0859   90.8132  130.8505 estimate D2E/DX2         !
 ! A11   L(4,1,21,2,-1)   178.5632  181.8953  182.3816 estimate D2E/DX2         !
 ! A12   L(4,1,21,2,-2)   181.7957  177.8035  176.5025 estimate D2E/DX2         !
 ! A13   A(4,1,61)         65.646    55.3068   84.5361 estimate D2E/DX2         !
 ! A14   A(6,1,7)          91.6748   92.9897   93.1816 estimate D2E/DX2         !
 ! A15   L(6,1,13,2,-1)   196.1871  179.9027  221.1424 estimate D2E/DX2         !
 ! A16   L(6,1,13,2,-2)   199.7875  180.197   245.2912 estimate D2E/DX2         !
 ! A17   A(6,1,21)         90.7302   92.827    93.2059 estimate D2E/DX2         !
 ! A18   L(6,1,61,2,-1)   153.0825  146.2057  174.8323 estimate D2E/DX2         !
 ! A19   L(6,1,61,2,-2)   148.694   133.7926  174.5395 estimate D2E/DX2         !
 ! A20   A(7,1,13)         72.6506   87.1023   45.5557 estimate D2E/DX2         !
 ! A21   A(7,1,21)         96.4201   89.3121   87.7196 estimate D2E/DX2         !
 ! A22   A(7,1,61)        114.1676  122.615    92.2245 estimate D2E/DX2         !
 ! A23   A(13,1,21)        72.1096   86.9744   45.554  estimate D2E/DX2         !
 ! A24   A(21,1,61)       115.2295  124.4079   92.2164 estimate D2E/DX2         !
 ! A25   L(1,2,3,18,-1)   187.1582  181.2299  179.5621 estimate D2E/DX2         !
 ! A26   L(1,2,3,22,-1)   180.314   179.0518  179.5279 estimate D2E/DX2         !
 ! A27   L(1,2,3,18,-2)   175.3798  178.8291  179.7608 estimate D2E/DX2         !
 ! A28   L(1,2,3,22,-2)   171.596   178.5473  180.1171 estimate D2E/DX2         !
 ! A29   L(1,4,5,8,-1)    179.9603  178.9781  179.5473 estimate D2E/DX2         !
 ! A30   L(1,4,5,8,-2)    189.0379  181.8662  179.8672 estimate D2E/DX2         !
 ! A31   L(1,6,30,10,-1)  182.1796  181.4747  182.6714 estimate D2E/DX2         !
 ! A32   L(1,6,30,10,-2)  178.8366  178.99    178.0594 estimate D2E/DX2         !
 ! A33   A(1,7,10)        123.011   121.4044  120.1501 estimate D2E/DX2         !
 ! A34   A(1,7,25)        118.9428  121.1552  122.4403 estimate D2E/DX2         !
 ! A35   A(10,7,25)       117.7012  117.3369  117.3751 estimate D2E/DX2         !
 ! A36   A(9,8,11)        121.2513  121.2244  121.0019 estimate D2E/DX2         !
 ! A37   A(9,8,25)        119.0769  119.2911  119.5213 estimate D2E/DX2         !
 ! A38   A(11,8,25)       119.644   119.4687  119.4588 estimate D2E/DX2         !
 ! A39   A(8,9,12)        120.4306  120.7321  120.7784 estimate D2E/DX2         !
 ! A40   A(8,9,33)        119.2299  118.9955  118.8861 estimate D2E/DX2         !
 ! A41   A(12,9,33)       120.3395  120.2701  120.331  estimate D2E/DX2         !
 ! A42   A(7,10,33)       124.1541  124.3771  124.5675 estimate D2E/DX2         !
 ! A43   A(7,10,56)       116.602   116.7619  116.7806 estimate D2E/DX2         !
 ! A44   A(33,10,56)      119.2437  118.8603  118.6518 estimate D2E/DX2         !
 ! A45   A(8,11,19)        65.8327   86.7094  101.5699 estimate D2E/DX2         !
 ! A46   L(1,13,14,8,-1)  180.5352  181.4217  143.4264 estimate D2E/DX2         !
 ! A47   L(1,13,14,8,-2)  173.2996  180.9146  272.8095 estimate D2E/DX2         !
 ! A48   A(14,13,62)      102.3813  135.1856  149.7131 estimate D2E/DX2         !
 ! A49   L(13,14,15,11,-1)  182.0834  178.6485  179.8378 estimate D2E/DX2       !
 ! A50   L(13,14,15,1,-1)  179.8641  179.3423  179.8053 estimate D2E/DX2        !
 ! A51   L(13,14,15,11,-2)  181.0455  177.655  180.1544 estimate D2E/DX2        !
 ! A52   L(13,14,15,1,-2)  150.68   323.0409  179.8888 estimate D2E/DX2         !
 ! A53   A(14,15,16)      119.9845  118.8297  119.745  estimate D2E/DX2         !
 ! A54   A(14,15,18)      119.3506  119.8879  119.8197 estimate D2E/DX2         !
 ! A55   A(16,15,18)      120.6617  121.2822  120.4296 estimate D2E/DX2         !
 ! A56   A(15,16,17)      119.4101  119.0657  119.537  estimate D2E/DX2         !
 ! A57   A(15,16,19)      119.6812  120.1746  119.8713 estimate D2E/DX2         !
 ! A58   A(17,16,19)      120.9083  120.7597  120.591  estimate D2E/DX2         !
 ! A59   A(16,17,29)      119.8608  119.7748  119.7337 estimate D2E/DX2         !
 ! A60   A(16,17,57)      120.1218  119.9927  120.0872 estimate D2E/DX2         !
 ! A61   A(29,17,57)      120.0173  120.2326  120.1787 estimate D2E/DX2         !
 ! A62   A(15,18,20)      119.6241  119.4873  119.8693 estimate D2E/DX2         !
 ! A63   A(15,18,58)      119.3039  118.7694  119.546  estimate D2E/DX2         !
 ! A64   A(20,18,58)      121.0719  121.7433  120.5838 estimate D2E/DX2         !
 ! A65   A(11,19,16)       92.592   112.1661  147.3575 estimate D2E/DX2         !
 ! A66   A(18,20,24)       68.0534   62.7598  151.9875 estimate D2E/DX2         !
 ! A67   A(18,20,61)      128.5609  162.5838   63.2149 estimate D2E/DX2         !
 ! A68   A(1,21,27)       119.1772  121.2128  122.409  estimate D2E/DX2         !
 ! A69   A(1,21,54)       122.6883  121.3339  120.1792 estimate D2E/DX2         !
 ! A70   A(27,21,54)      117.7392  117.3326  117.3719 estimate D2E/DX2         !
 ! A71   A(23,22,24)      121.2056  121.2226  120.9754 estimate D2E/DX2         !
 ! A72   A(23,22,27)      119.1082  119.2873  119.5087 estimate D2E/DX2         !
 ! A73   A(24,22,27)      119.6608  119.4755  119.497  estimate D2E/DX2         !
 ! A74   A(22,23,52)      119.2075  119.0084  118.8945 estimate D2E/DX2         !
 ! A75   A(22,23,53)      120.5286  120.7383  120.7806 estimate D2E/DX2         !
 ! A76   A(52,23,53)      120.2636  120.2517  120.3201 estimate D2E/DX2         !
 ! A77   A(20,24,22)       91.8786   87.5038  100.821  estimate D2E/DX2         !
 ! A78   A(7,25,8)        122.5864  122.7164  122.4501 estimate D2E/DX2         !
 ! A79   A(7,25,26)       116.7015  116.9941  116.2352 estimate D2E/DX2         !
 ! A80   A(8,25,26)       120.6957  120.2893  121.3081 estimate D2E/DX2         !
 ! A81   A(21,27,22)      122.538   122.7187  122.4637 estimate D2E/DX2         !
 ! A82   A(21,27,28)      116.6735  116.996   116.2248 estimate D2E/DX2         !
 ! A83   A(22,27,28)      120.7657  120.2851  121.3045 estimate D2E/DX2         !
 ! A84   A(39,31,43)      122.5488  122.5723  122.3093 estimate D2E/DX2         !
 ! A85   A(39,31,62)       61.4895   61.4914  118.8492 estimate D2E/DX2         !
 ! A86   A(39,31,63)      118.6816  118.7182   61.3666 estimate D2E/DX2         !
 ! A87   A(43,31,62)       61.4553   61.4953  118.8238 estimate D2E/DX2         !
 ! A88   A(43,31,63)      118.7669  118.7067   61.3697 estimate D2E/DX2         !
 ! A89   A(38,32,44)      121.8785  121.9166  121.8486 estimate D2E/DX2         !
 ! A90   A(38,32,62)      119.0715  119.0443   61.0678 estimate D2E/DX2         !
 ! A91   A(38,32,63)       61.0194   61.0778  119.0633 estimate D2E/DX2         !
 ! A92   A(44,32,62)      119.043   119.0318   61.0645 estimate D2E/DX2         !
 ! A93   A(44,32,63)       61.0808   61.068   119.0833 estimate D2E/DX2         !
 ! A94   A(9,33,10)       116.8812  117.0675  116.9662 estimate D2E/DX2         !
 ! A95   A(9,33,34)       122.1399  122.5908  122.9607 estimate D2E/DX2         !
 ! A96   A(10,33,34)      120.9705  120.3387  120.073  estimate D2E/DX2         !
 ! A97   A(33,34,35)      119.9757  120.9546  120.9417 estimate D2E/DX2         !
 ! A98   A(33,34,39)      121.0138  119.8331  119.8661 estimate D2E/DX2         !
 ! A99   A(35,34,39)      118.974   119.1791  119.1341 estimate D2E/DX2         !
 ! A100  A(34,35,36)      121.6798  121.2786  121.2856 estimate D2E/DX2         !
 ! A101  A(34,35,40)      119.5146  119.6689  119.674  estimate D2E/DX2         !
 ! A102  A(36,35,40)      118.7663  119.0134  118.9947 estimate D2E/DX2         !
 ! A103  A(35,36,37)      120.5859  120.7171  120.7422 estimate D2E/DX2         !
 ! A104  A(35,36,41)      119.0069  119.0123  119.0173 estimate D2E/DX2         !
 ! A105  A(37,36,41)      120.3803  120.2457  120.2125 estimate D2E/DX2         !
 ! A106  A(36,37,38)      120.3806  120.5328  120.5232 estimate D2E/DX2         !
 ! A107  A(36,37,42)      120.9575  120.6705  120.6689 estimate D2E/DX2         !
 ! A108  A(38,37,42)      118.6603  118.7953  118.8069 estimate D2E/DX2         !
 ! A109  A(32,38,37)      121.6484  122.24    122.2362 estimate D2E/DX2         !
 ! A110  A(32,38,39)      119.1796  118.9991  119.0121 estimate D2E/DX2         !
 ! A111  A(37,38,39)      119.1687  118.758   118.7457 estimate D2E/DX2         !
 ! A112  A(31,39,34)      122.584   122.1059  121.9443 estimate D2E/DX2         !
 ! A113  A(31,39,38)      118.3597  118.4984  118.6455 estimate D2E/DX2         !
 ! A114  A(34,39,38)      119.0467  119.389   119.4053 estimate D2E/DX2         !
 ! A115  A(31,43,44)      118.3963  118.4837  118.6513 estimate D2E/DX2         !
 ! A116  A(31,43,48)      122.6032  122.1247  121.9344 estimate D2E/DX2         !
 ! A117  A(44,43,48)      118.9929  119.3848  119.4097 estimate D2E/DX2         !
 ! A118  A(32,44,43)      119.1416  119.0099  119.0034 estimate D2E/DX2         !
 ! A119  A(32,44,45)      121.638   122.2187  122.2494 estimate D2E/DX2         !
 ! A120  A(43,44,45)      119.2172  118.7686  118.7409 estimate D2E/DX2         !
 ! A121  A(44,45,46)      120.3924  120.528   120.5213 estimate D2E/DX2         !
 ! A122  A(44,45,49)      118.7204  118.7904  118.817  estimate D2E/DX2         !
 ! A123  A(46,45,49)      120.8857  120.6802  120.6609 estimate D2E/DX2         !
 ! A124  A(45,46,47)      120.5499  120.7068  120.7457 estimate D2E/DX2         !
 ! A125  A(45,46,50)      120.3293  120.2507  120.209  estimate D2E/DX2         !
 ! A126  A(47,46,50)      119.0982  119.0168  119.0169 estimate D2E/DX2         !
 ! A127  A(46,47,48)      121.7042  121.3037  121.2822 estimate D2E/DX2         !
 ! A128  A(46,47,51)      118.7909  118.9924  118.9961 estimate D2E/DX2         !
 ! A129  A(48,47,51)      119.4661  119.663   119.6765 estimate D2E/DX2         !
 ! A130  A(43,48,47)      119.0064  119.1567  119.1323 estimate D2E/DX2         !
 ! A131  A(43,48,52)      120.994   119.9705  119.8668 estimate D2E/DX2         !
 ! A132  A(47,48,52)      119.9611  120.8346  120.9443 estimate D2E/DX2         !
 ! A133  A(23,52,48)      122.2165  122.5636  122.9353 estimate D2E/DX2         !
 ! A134  A(23,52,54)      116.8948  117.0493  116.97   estimate D2E/DX2         !
 ! A135  A(48,52,54)      120.8817  120.3865  120.0947 estimate D2E/DX2         !
 ! A136  A(21,54,52)      124.1643  124.391   124.5567 estimate D2E/DX2         !
 ! A137  A(21,54,55)      116.5173  116.7506  116.7927 estimate D2E/DX2         !
 ! A138  A(52,54,55)      119.3183  118.8579  118.6503 estimate D2E/DX2         !
 ! A139  A(17,57,58)      120.2936  120.597   120.3067 estimate D2E/DX2         !
 ! A140  A(17,57,60)      119.8379  119.6479  119.8457 estimate D2E/DX2         !
 ! A141  A(58,57,60)      119.8685  119.7552  119.8473 estimate D2E/DX2         !
 ! A142  A(18,58,57)      120.2087  120.2931  120.0864 estimate D2E/DX2         !
 ! A143  A(18,58,59)      119.7768  119.4952  119.7296 estimate D2E/DX2         !
 ! A144  A(57,58,59)      120.0145  120.2117  120.1834 estimate D2E/DX2         !
 ! A145  A(13,62,31)        0.9887    8.5014  148.3802 estimate D2E/DX2         !
 ! D1    D(4,1,7,10)      127.4162  118.0929  116.3527 estimate D2E/DX2         !
 ! D2    D(4,1,7,25)      -59.4888  -65.7047  -65.8409 estimate D2E/DX2         !
 ! D3    D(6,1,7,10)       40.168    28.7733   26.0902 estimate D2E/DX2         !
 ! D4    D(6,1,7,25)     -146.737  -155.0243 -156.1034 estimate D2E/DX2         !
 ! D5    D(13,1,7,10)    -119.7153 -151.027   -86.5137 estimate D2E/DX2         !
 ! D6    D(13,1,7,25)      53.3797   25.1754   91.2927 estimate D2E/DX2         !
 ! D7    D(21,1,7,10)     -50.7556  -64.0218  -66.9962 estimate D2E/DX2         !
 ! D8    D(21,1,7,25)     122.3393  112.1806  110.8102 estimate D2E/DX2         !
 ! D9    D(61,1,7,10)    -172.1306  164.4312 -159.1273 estimate D2E/DX2         !
 ! D10   D(61,1,7,25)       0.9644  -19.3665   18.679  estimate D2E/DX2         !
 ! D11   D(2,1,15,16)    -123.8231 -132.5668  117.3152 estimate D2E/DX2         !
 ! D12   D(2,1,15,18)      52.4136   46.8712   -7.0382 estimate D2E/DX2         !
 ! D13   D(4,1,15,16)     133.8     134.5698    8.9434 estimate D2E/DX2         !
 ! D14   D(4,1,15,18)     -49.9632  -45.9921 -115.41   estimate D2E/DX2         !
 ! D15   D(7,1,15,16)      57.3325   45.9148  -62.8995 estimate D2E/DX2         !
 ! D16   D(7,1,15,18)    -126.4307 -134.6472  172.7471 estimate D2E/DX2         !
 ! D17   D(21,1,15,16)    -46.9006  -43.5417 -170.8879 estimate D2E/DX2         !
 ! D18   D(21,1,15,18)    129.3362  135.8964   64.7587 estimate D2E/DX2         !
 ! D19   D(2,1,21,27)      59.1705   64.9775   66.0092 estimate D2E/DX2         !
 ! D20   D(2,1,21,54)    -128.2147 -119.1227 -116.3481 estimate D2E/DX2         !
 ! D21   D(6,1,21,27)     146.2589  154.3689  156.2852 estimate D2E/DX2         !
 ! D22   D(6,1,21,54)     -41.1263  -29.7313  -26.0721 estimate D2E/DX2         !
 ! D23   D(7,1,21,27)    -121.9734 -112.6715 -110.6537 estimate D2E/DX2         !
 ! D24   D(7,1,21,54)      50.6414   63.2282   66.989  estimate D2E/DX2         !
 ! D25   D(13,1,21,27)    -52.5617  -25.5371  -91.1356 estimate D2E/DX2         !
 ! D26   D(13,1,21,54)    120.0531  150.3627   86.5071 estimate D2E/DX2         !
 ! D27   D(61,1,21,27)     -1.4123   17.5031  -18.5141 estimate D2E/DX2         !
 ! D28   D(61,1,21,54)    171.2025 -166.5972  159.1286 estimate D2E/DX2         !
 ! D29   D(1,7,10,33)     166.0612  170.9989  173.1231 estimate D2E/DX2         !
 ! D30   D(1,7,10,56)     -13.8078   -8.6878   -6.7473 estimate D2E/DX2         !
 ! D31   D(25,7,10,33)     -7.1143   -5.3429   -4.7922 estimate D2E/DX2         !
 ! D32   D(25,7,10,56)    173.0167  174.9705  175.3374 estimate D2E/DX2         !
 ! D33   D(1,7,25,8)     -169.925  -174.1697 -177.2166 estimate D2E/DX2         !
 ! D34   D(1,7,25,26)       8.6067    5.9781    1.8568 estimate D2E/DX2         !
 ! D35   D(10,7,25,8)       3.5367    2.1817    0.6474 estimate D2E/DX2         !
 ! D36   D(10,7,25,26)   -177.9316 -177.6705  179.7208 estimate D2E/DX2         !
 ! D37   D(11,8,9,12)      -1.6254   -1.589    -1.8553 estimate D2E/DX2         !
 ! D38   D(11,8,9,33)     178.3648  178.9627  178.9172 estimate D2E/DX2         !
 ! D39   D(25,8,9,12)     176.4457  176.9571  176.5923 estimate D2E/DX2         !
 ! D40   D(25,8,9,33)      -3.5641   -2.4911   -2.6352 estimate D2E/DX2         !
 ! D41   D(9,8,11,19)      93.4252  128.0158  111.5414 estimate D2E/DX2         !
 ! D42   D(25,8,11,19)    -84.6351  -50.5278  -66.9071 estimate D2E/DX2         !
 ! D43   D(9,8,25,7)        1.6749    1.6357    2.9883 estimate D2E/DX2         !
 ! D44   D(9,8,25,26)    -176.7997 -178.5168 -176.0389 estimate D2E/DX2         !
 ! D45   D(11,8,25,7)     179.7775 -179.7923 -178.5399 estimate D2E/DX2         !
 ! D46   D(11,8,25,26)      1.303     0.0552    2.4328 estimate D2E/DX2         !
 ! D47   D(8,9,33,10)       0.3843   -0.3199   -1.0696 estimate D2E/DX2         !
 ! D48   D(8,9,33,34)    -178.5717  179.0584  179.0325 estimate D2E/DX2         !
 ! D49   D(12,9,33,10)   -179.6255 -179.7707  179.6995 estimate D2E/DX2         !
 ! D50   D(12,9,33,34)      1.4185   -0.3925   -0.1985 estimate D2E/DX2         !
 ! D51   D(7,10,33,9)       5.1749    4.4392    5.015  estimate D2E/DX2         !
 ! D52   D(7,10,33,34)   -175.8561 -174.9538 -175.0839 estimate D2E/DX2         !
 ! D53   D(56,10,33,9)   -174.9593 -175.8802 -175.1168 estimate D2E/DX2         !
 ! D54   D(56,10,33,34)     4.0097    4.7267    4.7842 estimate D2E/DX2         !
 ! D55   D(8,11,19,16)    141.2872  117.7639   53.3578 estimate D2E/DX2         !
 ! D56   D(62,13,15,16)     2.5495    0.4233   89.7844 estimate D2E/DX2         !
 ! D57   D(62,13,15,18)  -179.0148 -179.8178  -89.249  estimate D2E/DX2         !
 ! D58   D(14,13,62,31)     8.9096    1.3918 -178.9573 estimate D2E/DX2         !
 ! D59   D(14,15,16,17)   179.253   179.857  -178.3155 estimate D2E/DX2         !
 ! D60   D(14,15,16,19)    -0.5247   -0.1263    1.3773 estimate D2E/DX2         !
 ! D61   D(18,15,16,17)    -0.0995    0.0027    0.8132 estimate D2E/DX2         !
 ! D62   D(18,15,16,19)  -179.8772 -179.9806 -179.494  estimate D2E/DX2         !
 ! D63   D(14,15,18,20)     0.5941    0.1848   -1.3207 estimate D2E/DX2         !
 ! D64   D(14,15,18,58)  -179.3375 -179.8524  178.3373 estimate D2E/DX2         !
 ! D65   D(16,15,18,20)   179.9507 -179.9624  179.5513 estimate D2E/DX2         !
 ! D66   D(16,15,18,58)     0.019     0.0003   -0.7907 estimate D2E/DX2         !
 ! D67   D(15,16,17,29)  -179.7619  179.998   179.6371 estimate D2E/DX2         !
 ! D68   D(15,16,17,57)     0.109    -0.0077   -0.1502 estimate D2E/DX2         !
 ! D69   D(19,16,17,29)     0.013    -0.0189   -0.0534 estimate D2E/DX2         !
 ! D70   D(19,16,17,57)   179.8839  179.9755 -179.8408 estimate D2E/DX2         !
 ! D71   D(15,16,19,11)   -55.5235  -64.5372  -76.5178 estimate D2E/DX2         !
 ! D72   D(17,16,19,11)   124.7023  115.4798  103.1717 estimate D2E/DX2         !
 ! D73   D(16,17,57,58)    -0.0389    0.0098   -0.5324 estimate D2E/DX2         !
 ! D74   D(16,17,57,60)  -179.9969 -179.988   179.6298 estimate D2E/DX2         !
 ! D75   D(29,17,57,58)   179.8318 -179.9959  179.6812 estimate D2E/DX2         !
 ! D76   D(29,17,57,60)    -0.1262    0.0063   -0.1566 estimate D2E/DX2         !
 ! D77   D(15,18,20,24)   -51.3022  -39.6752   72.2844 estimate D2E/DX2         !
 ! D78   D(15,18,20,61)    -4.9389    2.2233   79.8547 estimate D2E/DX2         !
 ! D79   D(58,18,20,24)   128.6282  140.3632 -107.37   estimate D2E/DX2         !
 ! D80   D(58,18,20,61)   174.9915 -177.7383  -99.7997 estimate D2E/DX2         !
 ! D81   D(15,18,58,57)     0.0521    0.0017    0.1052 estimate D2E/DX2         !
 ! D82   D(15,18,58,59)   179.9357  179.9964 -179.6257 estimate D2E/DX2         !
 ! D83   D(20,18,58,57)  -179.8785  179.9635  179.7607 estimate D2E/DX2         !
 ! D84   D(20,18,58,59)     0.0051   -0.0418    0.0298 estimate D2E/DX2         !
 ! D85   D(18,20,24,22)    90.3388  118.348   -46.9348 estimate D2E/DX2         !
 ! D86   D(1,21,27,22)    169.1165  173.7347  176.964  estimate D2E/DX2         !
 ! D87   D(1,21,27,28)     -9.1551   -6.4186   -2.0847 estimate D2E/DX2         !
 ! D88   D(54,21,27,22)    -3.8627   -2.3232   -0.7414 estimate D2E/DX2         !
 ! D89   D(54,21,27,28)   177.8656  177.5235 -179.79   estimate D2E/DX2         !
 ! D90   D(1,21,54,52)   -165.732  -170.7064 -172.9049 estimate D2E/DX2         !
 ! D91   D(1,21,54,55)     14.3095    9.0522    6.903  estimate D2E/DX2         !
 ! D92   D(27,21,54,52)     6.9832    5.3464    4.8541 estimate D2E/DX2         !
 ! D93   D(27,21,54,55)  -172.9753 -174.895  -175.338  estimate D2E/DX2         !
 ! D94   D(24,22,23,52)  -178.4471 -178.8661 -178.9497 estimate D2E/DX2         !
 ! D95   D(24,22,23,53)     1.76      1.5972    1.8437 estimate D2E/DX2         !
 ! D96   D(27,22,23,52)     3.3889    2.5283    2.6426 estimate D2E/DX2         !
 ! D97   D(27,22,23,53)  -176.404  -177.0084 -176.5639 estimate D2E/DX2         !
 ! D98   D(23,22,24,20)  -134.3885 -167.1236 -114.2662 estimate D2E/DX2         !
 ! D99   D(27,22,24,20)    43.7656   11.4793   64.1416 estimate D2E/DX2         !
 ! D100  D(23,22,27,21)    -1.196    -1.5128   -2.9271 estimate D2E/DX2         !
 ! D101  D(23,22,27,28)   177.0065  178.6454  176.0741 estimate D2E/DX2         !
 ! D102  D(24,22,27,21)  -179.389   179.8569  178.6415 estimate D2E/DX2         !
 ! D103  D(24,22,27,28)    -1.1864    0.0151   -2.3573 estimate D2E/DX2         !
 ! D104  D(22,23,52,48)   178.4225 -179.5503 -179.0167 estimate D2E/DX2         !
 ! D105  D(22,23,52,54)    -0.6225    0.1582    1.0323 estimate D2E/DX2         !
 ! D106  D(53,23,52,48)    -1.7841   -0.0113    0.1935 estimate D2E/DX2         !
 ! D107  D(53,23,52,54)   179.1709  179.6972 -179.7574 estimate D2E/DX2         !
 ! D108  D(43,31,39,34)  -171.0121 -171.0588 -171.1073 estimate D2E/DX2         !
 ! D109  D(43,31,39,38)     7.85      7.9929    8.0804 estimate D2E/DX2         !
 ! D110  D(62,31,39,34)  -178.3463 -178.5638   10.4416 estimate D2E/DX2         !
 ! D111  D(62,31,39,38)     0.5158    0.4878 -170.3707 estimate D2E/DX2         !
 ! D112  D(63,31,39,34)     8.3771    8.319  -178.7139 estimate D2E/DX2         !
 ! D113  D(63,31,39,38)  -172.7608 -172.6293    0.4738 estimate D2E/DX2         !
 ! D114  D(39,31,43,44)    -7.7475   -8.0368   -8.1047 estimate D2E/DX2         !
 ! D115  D(39,31,43,48)   171.2335  171.0122  171.1092 estimate D2E/DX2         !
 ! D116  D(62,31,43,44)    -0.411    -0.532   170.3468 estimate D2E/DX2         !
 ! D117  D(62,31,43,48)   178.5701  178.517   -10.4393 estimate D2E/DX2         !
 ! D118  D(63,31,43,44)   172.8637  172.5853   -0.4984 estimate D2E/DX2         !
 ! D119  D(63,31,43,48)    -8.1552   -8.3657  178.7155 estimate D2E/DX2         !
 ! D120  D(39,31,62,13)    91.8015   86.7475   89.3766 estimate D2E/DX2         !
 ! D121  D(43,31,62,13)   -81.1624  -86.0571  -89.1292 estimate D2E/DX2         !
 ! D122  D(44,32,38,37)   178.1928  178.0761  178.3863 estimate D2E/DX2         !
 ! D123  D(44,32,38,39)    -2.476    -2.5547   -2.5202 estimate D2E/DX2         !
 ! D124  D(62,32,38,37)    -0.8331   -0.9271 -175.4289 estimate D2E/DX2         !
 ! D125  D(62,32,38,39)   178.498   178.4421    3.6647 estimate D2E/DX2         !
 ! D126  D(63,32,38,37)  -176.3373 -176.3626   -0.8107 estimate D2E/DX2         !
 ! D127  D(63,32,38,39)     2.9939    3.0066  178.2828 estimate D2E/DX2         !
 ! D128  D(38,32,44,43)     2.5811    2.5098    2.496  estimate D2E/DX2         !
 ! D129  D(38,32,44,45)  -178.0708 -178.1172 -178.4259 estimate D2E/DX2         !
 ! D130  D(62,32,44,43)  -178.3926 -178.4869   -3.689  estimate D2E/DX2         !
 ! D131  D(62,32,44,45)     0.9554    0.8861  175.3891 estimate D2E/DX2         !
 ! D132  D(63,32,44,43)    -2.8855   -3.052  -178.3071 estimate D2E/DX2         !
 ! D133  D(63,32,44,45)   176.4626  176.3211    0.771  estimate D2E/DX2         !
 ! D134  D(9,33,34,35)     45.6657   51.0888   50.1007 estimate D2E/DX2         !
 ! D135  D(9,33,34,39)   -136.5555 -131.0271 -132.6936 estimate D2E/DX2         !
 ! D136  D(10,33,34,35)  -133.2483 -129.5527 -129.7941 estimate D2E/DX2         !
 ! D137  D(10,33,34,39)    44.5306   48.3314   47.4115 estimate D2E/DX2         !
 ! D138  D(33,34,35,36)   176.9435  176.8502  176.1599 estimate D2E/DX2         !
 ! D139  D(33,34,35,40)    -0.7479   -0.8529   -1.356  estimate D2E/DX2         !
 ! D140  D(39,34,35,36)    -0.8806   -1.0475   -1.0659 estimate D2E/DX2         !
 ! D141  D(39,34,35,40)  -178.5719 -178.7507 -178.5818 estimate D2E/DX2         !
 ! D142  D(33,34,39,31)     5.0993    5.0696    6.0886 estimate D2E/DX2         !
 ! D143  D(33,34,39,38)  -173.7553 -173.9738 -173.0931 estimate D2E/DX2         !
 ! D144  D(35,34,39,31)  -177.1    -177.0086 -176.6552 estimate D2E/DX2         !
 ! D145  D(35,34,39,38)     4.0454    3.9479    4.1631 estimate D2E/DX2         !
 ! D146  D(34,35,36,37)    -2.0597   -1.7539   -1.9335 estimate D2E/DX2         !
 ! D147  D(34,35,36,41)   179.8188 -179.946   179.9868 estimate D2E/DX2         !
 ! D148  D(40,35,36,37)   175.6484  175.9639  175.5989 estimate D2E/DX2         !
 ! D149  D(40,35,36,41)    -2.4731   -2.2281   -2.4808 estimate D2E/DX2         !
 ! D150  D(35,36,37,38)     1.7091    1.5673    1.7411 estimate D2E/DX2         !
 ! D151  D(35,36,37,42)  -177.8282 -177.994  -177.8964 estimate D2E/DX2         !
 ! D152  D(41,36,37,38)   179.8047  179.737   179.7978 estimate D2E/DX2         !
 ! D153  D(41,36,37,42)     0.2674    0.1757    0.1604 estimate D2E/DX2         !
 ! D154  D(36,37,38,32)  -179.1559 -179.2627 -179.5119 estimate D2E/DX2         !
 ! D155  D(36,37,38,39)     1.5128    1.3667    1.3922 estimate D2E/DX2         !
 ! D156  D(42,37,38,32)     0.3919    0.3067    0.1322 estimate D2E/DX2         !
 ! D157  D(42,37,38,39)  -178.9394 -179.0639 -178.9637 estimate D2E/DX2         !
 ! D158  D(32,38,39,31)    -2.6166   -2.5673   -2.6519 estimate D2E/DX2         !
 ! D159  D(32,38,39,34)   176.2866  176.5107  176.5569 estimate D2E/DX2         !
 ! D160  D(37,38,39,31)   176.7313  176.824   176.4737 estimate D2E/DX2         !
 ! D161  D(37,38,39,34)    -4.3654   -4.0979   -4.3176 estimate D2E/DX2         !
 ! D162  D(31,43,44,32)     2.4061    2.6566    2.6995 estimate D2E/DX2         !
 ! D163  D(31,43,44,45)  -176.9579 -176.7383 -176.4112 estimate D2E/DX2         !
 ! D164  D(48,43,44,32)  -176.6125 -176.4191 -176.5346 estimate D2E/DX2         !
 ! D165  D(48,43,44,45)     4.0235    4.186     4.3546 estimate D2E/DX2         !
 ! D166  D(31,43,48,47)   177.3783  176.9457  176.5563 estimate D2E/DX2         !
 ! D167  D(31,43,48,52)    -4.8812   -5.2827   -6.1537 estimate D2E/DX2         !
 ! D168  D(44,43,48,47)    -3.6466   -4.0136   -4.2356 estimate D2E/DX2         !
 ! D169  D(44,43,48,52)   174.094   173.758   173.0544 estimate D2E/DX2         !
 ! D170  D(32,44,45,46)   179.1794  179.2214  179.5474 estimate D2E/DX2         !
 ! D171  D(32,44,45,49)    -0.3863   -0.3466   -0.1163 estimate D2E/DX2         !
 ! D172  D(43,44,45,46)    -1.473    -1.4041   -1.3722 estimate D2E/DX2         !
 ! D173  D(43,44,45,49)   178.9613  179.0279  178.9641 estimate D2E/DX2         !
 ! D174  D(44,45,46,47)    -1.5009   -1.6024   -1.7832 estimate D2E/DX2         !
 ! D175  D(44,45,46,50)  -179.7571 -179.7387 -179.8274 estimate D2E/DX2         !
 ! D176  D(49,45,46,47)   178.0553  177.9574  177.8742 estimate D2E/DX2         !
 ! D177  D(49,45,46,50)    -0.2009   -0.1789   -0.1699 estimate D2E/DX2         !
 ! D178  D(45,46,47,48)     1.909     1.8123    1.9391 estimate D2E/DX2         !
 ! D179  D(45,46,47,51)  -175.8117 -175.853  -175.6076 estimate D2E/DX2         !
 ! D180  D(50,46,47,48)  -179.8136  179.9713 -179.9938 estimate D2E/DX2         !
 ! D181  D(50,46,47,51)     2.4658    2.306     2.4595 estimate D2E/DX2         !
 ! D182  D(46,47,48,43)     0.7248    1.0412    1.1177 estimate D2E/DX2         !
 ! D183  D(46,47,48,52)  -177.0396 -176.7106 -176.1422 estimate D2E/DX2         !
 ! D184  D(51,47,48,43)   178.4304  178.691   178.648  estimate D2E/DX2         !
 ! D185  D(51,47,48,52)     0.6661    0.9392    1.388  estimate D2E/DX2         !
 ! D186  D(43,48,52,23)   135.7754  131.8205  132.61   estimate D2E/DX2         !
 ! D187  D(43,48,52,54)   -45.2171  -47.8786  -47.4405 estimate D2E/DX2         !
 ! D188  D(47,48,52,23)   -46.5055  -50.4459  -50.15   estimate D2E/DX2         !
 ! D189  D(47,48,52,54)   132.502   129.855   129.7995 estimate D2E/DX2         !
 ! D190  D(23,52,54,21)    -4.7633   -4.2914   -5.0121 estimate D2E/DX2         !
 ! D191  D(23,52,54,55)   175.1941  175.9547  175.1833 estimate D2E/DX2         !
 ! D192  D(48,52,54,21)   176.1782  175.4238  175.0354 estimate D2E/DX2         !
 ! D193  D(48,52,54,55)    -3.8644   -4.3301   -4.7691 estimate D2E/DX2         !
 ! D194  D(17,57,58,18)    -0.0426   -0.0068    0.5552 estimate D2E/DX2         !
 ! D195  D(17,57,58,59)  -179.9259  179.9986 -179.7151 estimate D2E/DX2         !
 ! D196  D(60,57,58,18)   179.9154  179.991  -179.607  estimate D2E/DX2         !
 ! D197  D(60,57,58,59)     0.0321   -0.0036    0.1226 estimate D2E/DX2         !
 --------------------------------------------------------------------------------
 Trust Radius=3.00D-01 FncErr=1.00D-07 GrdErr=1.00D-06 EigMax=2.50D+02 EigMin=1.00D-04
 Number of steps in this run=    378 maximum allowed number of steps=    378.
 Search for a saddle point of order  1.
 GradGradGradGradGradGradGradGradGradGradGradGradGradGradGradGradGradGrad

 Stoichiometry    C34H21BrMnN3O3
 Framework group  C1[X(C34H21BrMnN3O3)]
 Deg. of freedom   183
 Full point group                 C1      NOp   1
 Largest Abelian subgroup         C1      NOp   1
 Largest concise Abelian subgroup C1      NOp   1
                         Standard orientation:                         
 ---------------------------------------------------------------------
 Center     Atomic      Atomic             Coordinates (Angstroms)
 Number     Number       Type             X           Y           Z
 ---------------------------------------------------------------------
      1         25           0       -1.549222   -1.681640   -0.447542
      2          6           0       -2.473758   -2.138250   -1.963021
      3          8           0       -2.916821   -2.505205   -2.952943
      4          6           0       -2.401688   -2.937673    0.576787
      5          8           0       -2.785210   -3.814737    1.205271
      6          6           0       -0.385521   -2.943749   -0.883412
      7          7           0       -0.460863   -1.216200    1.367860
      8          6           0       -0.524377   -0.306852    3.582755
      9          6           0        0.861438   -0.168809    3.588958
     10          6           0        0.872123   -1.177613    1.426987
     11          1           0       -1.128948    0.007113    4.436562
     12          1           0        1.368918    0.283925    4.444775
     13          7           0       -2.200618    0.503636    0.229488
     14          6           0       -2.403253    1.608330    0.499630
     15          6           0       -2.693220    2.986651    0.791624
     16          6           0       -1.647847    3.909513    0.921420
     17          6           0       -1.943197    5.245017    1.188941
     18          6           0       -4.025953    3.393224    0.929970
     19          1           0       -0.615988    3.575850    0.808614
     20          1           0       -4.827267    2.660031    0.824696
     21          7           0       -0.518841   -0.252614   -1.721899
     22          6           0       -0.639212    1.763081   -3.007732
     23          6           0        0.746929    1.889424   -2.980481
     24          1           0       -1.265056    2.507166   -3.502835
     25          6           0       -1.145984   -0.816679    2.452382
     26          1           0       -2.235353   -0.887829    2.398855
     27          6           0       -1.232083    0.688934   -2.359172
     28          1           0       -2.319597    0.589574   -2.321867
     29          1           0       -1.134284    5.971311    1.287690
     30          8           0        0.334495   -3.793284   -1.182050
     31          6           0        3.085159    0.384199    0.110608
     32          6           0        5.863501    0.212051    0.006228
     33          6           0        1.596987   -0.616294    2.487553
     34          6           0        3.084625   -0.529130    2.438852
     35          6           0        3.830076   -0.916609    3.524007
     36          6           0        5.257439   -0.909180    3.494360
     37          6           0        5.926549   -0.552063    2.359890
     38          6           0        5.204402   -0.143249    1.190167
     39          6           0        3.769051   -0.083047    1.238379
     40          1           0        3.324153   -1.276412    4.424557
     41          1           0        5.807644   -1.223753    4.384700
     42          1           0        7.019615   -0.578042    2.319389
     43          6           0        3.726856    0.640356   -1.106824
     44          6           0        5.162346    0.576108   -1.149799
     45          6           0        5.841711    0.899760   -2.371628
     46          6           0        5.132653    1.235006   -3.487495
     47          6           0        3.705050    1.238198   -3.466438
     48          6           0        2.999469    0.945402   -2.325308
     49          1           0        6.935419    0.864855   -2.390402
     50          1           0        5.651337    1.477627   -4.419192
     51          1           0        3.165201    1.443761   -4.394690
     52          6           0        1.510044    0.895379   -2.363161
     53          1           0        1.234715    2.757341   -3.433294
     54          6           0        0.811328   -0.176455   -1.790342
     55          1           0        1.368930   -1.012362   -1.368291
     56          1           0        1.411254   -1.614318    0.585227
     57          6           0       -3.268054    5.654009    1.327606
     58          6           0       -4.306357    4.731469    1.199077
     59          1           0       -5.341480    5.056713    1.307261
     60          1           0       -3.494798    6.704422    1.537711
     61         35           0       -4.552674   -1.292039   -0.230836
     62          1           0        6.957843    0.189400   -0.020836
     63          1           0        2.011066    0.545255    0.180592
 ---------------------------------------------------------------------
 Rotational constants (GHZ):           0.0948673           0.0537083           0.0506231
 General basis read from cards:  (5D, 7F)
 There are   802 symmetry adapted cartesian basis functions of A   symmetry.
 There are   751 symmetry adapted basis functions of A   symmetry.
   751 basis functions,  1339 primitive gaussians,   802 cartesian basis functions
   165 alpha electrons      165 beta electrons
       nuclear repulsion energy      6058.2206285442 Hartrees.
 NAtoms=   63 NActive=   63 NUniq=   63 SFac= 1.00D+00 NAtFMM=   60 NAOKFM=T Big=T
 Integral buffers will be    131072 words long.
 Raffenetti 2 integral format.
 Two-electron integral symmetry is turned on.
 Nuclear repulsion after empirical dispersion term =     6058.1557856797 Hartrees.
 ------------------------------------------------------------------------------
 Polarizable Continuum Model (PCM)
 =================================
 Model                : PCM.
 Atomic radii         : UFF (Universal Force Field).
 Polarization charges : Total charges.
 Charge compensation  : None.
 Solution method      : On-the-fly selection.
 Cavity type          : Scaled VdW (van der Waals Surface) (Alpha=1.100).
 Cavity algorithm     : GePol (No added spheres)
                        Default sphere list used, NSphG=   63.
                        Lebedev-Laikov grids with approx.  5.0 points / Ang**2.
                        Smoothing algorithm: York/Karplus (Gamma=1.0000).
                        Polarization charges: spherical gaussians, with
                                              point-specific exponents (IZeta= 3).
                        Self-potential: point-specific (ISelfS= 7).
                        Self-field    : sphere-specific E.n sum rule (ISelfD= 2).
 1st derivatives      : Analytical E(r).r(x)/FMM algorithm (CHGder, D1EAlg=3).
                        Cavity 1st derivative terms included.
 Solvent              : TetraHydroFuran, Eps=   7.425700 Eps(inf)=   1.974025
 ------------------------------------------------------------------------------
 One-electron integrals computed using PRISM.
 PrsmSu:  requested number of processors reduced to:  11 ShMem   1 Linda.
 NBasis=   751 RedAO= T EigKep=  2.28D-04  NBF=   751
 NBsUse=   751 1.00D-06 EigRej= -1.00D+00 NBFU=   751
 ExpMin= 3.93D-02 ExpMax= 2.77D+05 ExpMxC= 1.70D+04 IAcc=3 IRadAn=         5 AccDes= 0.00D+00
 Harris functional with IExCor= 4639 and IRadAn=       5 diagonalized for initial guess.
 HarFok:  IExCor= 4639 AccDes= 0.00D+00 IRadAn=         5 IDoV= 1 UseB2=F ITyADJ=14
 ICtDFT=  3500011 ScaDFX=  1.000000  1.000000  1.000000  1.000000
 FoFCou: FMM=F IPFlag=           0 FMFlag=      100000 FMFlg1=        2001
         NFxFlg=           0 DoJE=T BraDBF=F KetDBF=T FulRan=T
         wScrn=  0.000000 ICntrl=       500 IOpCl=  0 I1Cent=   200000004 NGrid=           0
         NMat0=    1 NMatS0=      1 NMatT0=    0 NMatD0=    1 NMtDS0=    0 NMtDT0=    0
 Petite list used in FoFCou.
 Requested convergence on RMS density matrix=1.00D-08 within 128 cycles.
 Requested convergence on MAX density matrix=1.00D-06.
 Requested convergence on             energy=1.00D-06.
 No special actions if energy rises.
 CoulSu:  requested number of processors reduced to:   9 ShMem   1 Linda.
 Inv3:  Mode=1 IEnd=    67687500.
 Iteration    1 A*A^-1 deviation from unit magnitude is 3.55D-15 for     55.
 Iteration    1 A*A^-1 deviation from orthogonality  is 1.89D-15 for   4001    971.
 Iteration    1 A^-1*A deviation from unit magnitude is 3.55D-15 for   3822.
 Iteration    1 A^-1*A deviation from orthogonality  is 2.44D-15 for   3029    441.
 CoulSu:  requested number of processors reduced to:   9 ShMem   1 Linda.
 CoulSu:  requested number of processors reduced to:   9 ShMem   1 Linda.
 Error on total polarization charges =  0.02052
 SCF Done:  E(RwB97XD) =  -5421.43093498     A.U. after   19 cycles
            NFock= 19  Conv=0.82D-08     -V/T= 2.0041

 **********************************************************************

            Population analysis using the SCF density.

 **********************************************************************

 Orbital symmetries:
       Occupied  (A) (A) (A) (A) (A) (A) (A) (A) (A) (A) (A) (A)
                 (A) (A) (A) (A) (A) (A) (A) (A) (A) (A) (A) (A)
                 (A) (A) (A) (A) (A) (A) (A) (A) (A) (A) (A) (A)
                 (A) (A) (A) (A) (A) (A) (A) (A) (A) (A) (A) (A)
                 (A) (A) (A) (A) (A) (A) (A) (A) (A) (A) (A) (A)
                 (A) (A) (A) (A) (A) (A) (A) (A) (A) (A) (A) (A)
                 (A) (A) (A) (A) (A) (A) (A) (A) (A) (A) (A) (A)
                 (A) (A) (A) (A) (A) (A) (A) (A) (A) (A) (A) (A)
                 (A) (A) (A) (A) (A) (A) (A) (A) (A) (A) (A) (A)
                 (A) (A) (A) (A) (A) (A) (A) (A) (A) (A) (A) (A)
                 (A) (A) (A) (A) (A) (A) (A) (A) (A) (A) (A) (A)
                 (A) (A) (A) (A) (A) (A) (A) (A) (A) (A) (A) (A)
                 (A) (A) (A) (A) (A) (A) (A) (A) (A) (A) (A) (A)
                 (A) (A) (A) (A) (A) (A) (A) (A) (A)
       Virtual   (A) (A) (A) (A) (A) (A) (A) (A) (A) (A) (A) (A)
                 (A) (A) (A) (A) (A) (A) (A) (A) (A) (A) (A) (A)
                 (A) (A) (A) (A) (A) (A) (A) (A) (A) (A) (A) (A)
                 (A) (A) (A) (A) (A) (A) (A) (A) (A) (A) (A) (A)
                 (A) (A) (A) (A) (A) (A) (A) (A) (A) (A) (A) (A)
                 (A) (A) (A) (A) (A) (A) (A) (A) (A) (A) (A) (A)
                 (A) (A) (A) (A) (A) (A) (A) (A) (A) (A) (A) (A)
                 (A) (A) (A) (A) (A) (A) (A) (A) (A) (A) (A) (A)
                 (A) (A) (A) (A) (A) (A) (A) (A) (A) (A) (A) (A)
                 (A) (A) (A) (A) (A) (A) (A) (A) (A) (A) (A) (A)
                 (A) (A) (A) (A) (A) (A) (A) (A) (A) (A) (A) (A)
                 (A) (A) (A) (A) (A) (A) (A) (A) (A) (A) (A) (A)
                 (A) (A) (A) (A) (A) (A) (A) (A) (A) (A) (A) (A)
                 (A) (A) (A) (A) (A) (A) (A) (A) (A) (A) (A) (A)
                 (A) (A) (A) (A) (A) (A) (A) (A) (A) (A) (A) (A)
                 (A) (A) (A) (A) (A) (A) (A) (A) (A) (A) (A) (A)
                 (A) (A) (A) (A) (A) (A) (A) (A) (A) (A) (A) (A)
                 (A) (A) (A) (A) (A) (A) (A) (A) (A) (A) (A) (A)
                 (A) (A) (A) (A) (A) (A) (A) (A) (A) (A) (A) (A)
                 (A) (A) (A) (A) (A) (A) (A) (A) (A) (A) (A) (A)
                 (A) (A) (A) (A) (A) (A) (A) (A) (A) (A) (A) (A)
                 (A) (A) (A) (A) (A) (A) (A) (A) (A) (A) (A) (A)
                 (A) (A) (A) (A) (A) (A) (A) (A) (A) (A) (A) (A)
                 (A) (A) (A) (A) (A) (A) (A) (A) (A) (A) (A) (A)
                 (A) (A) (A) (A) (A) (A) (A) (A) (A) (A) (A) (A)
                 (A) (A) (A) (A) (A) (A) (A) (A) (A) (A) (A) (A)
                 (A) (A) (A) (A) (A) (A) (A) (A) (A) (A) (A) (A)
                 (A) (A) (A) (A) (A) (A) (A) (A) (A) (A) (A) (A)
                 (A) (A) (A) (A) (A) (A) (A) (A) (A) (A) (A) (A)
                 (A) (A) (A) (A) (A) (A) (A) (A) (A) (A) (A) (A)
                 (A) (A) (A) (A) (A) (A) (A) (A) (A) (A) (A) (A)
                 (A) (A) (A) (A) (A) (A) (A) (A) (A) (A) (A) (A)
                 (A) (A) (A) (A) (A) (A) (A) (A) (A) (A) (A) (A)
                 (A) (A) (A) (A) (A) (A) (A) (A) (A) (A) (A) (A)
                 (A) (A) (A) (A) (A) (A) (A) (A) (A) (A) (A) (A)
                 (A) (A) (A) (A) (A) (A) (A) (A) (A) (A) (A) (A)
                 (A) (A) (A) (A) (A) (A) (A) (A) (A) (A) (A) (A)
                 (A) (A) (A) (A) (A) (A) (A) (A) (A) (A) (A) (A)
                 (A) (A) (A) (A) (A) (A) (A) (A) (A) (A) (A) (A)
                 (A) (A) (A) (A) (A) (A) (A) (A) (A) (A) (A) (A)
                 (A) (A) (A) (A) (A) (A) (A) (A) (A) (A) (A) (A)
                 (A) (A) (A) (A) (A) (A) (A) (A) (A) (A) (A) (A)
                 (A) (A) (A) (A) (A) (A) (A) (A) (A) (A) (A) (A)
                 (A) (A) (A) (A) (A) (A) (A) (A) (A) (A) (A) (A)
                 (A) (A) (A) (A) (A) (A) (A) (A) (A) (A) (A) (A)
                 (A) (A) (A) (A) (A) (A) (A) (A) (A) (A) (A) (A)
                 (A) (A) (A) (A) (A) (A) (A) (A) (A) (A) (A) (A)
                 (A) (A) (A) (A) (A) (A) (A) (A) (A) (A) (A) (A)
                 (A) (A) (A) (A) (A) (A) (A) (A) (A) (A)
 The electronic state is 1-A.
 Alpha  occ. eigenvalues -- -482.96223-235.69020 -62.54270 -56.34847 -56.34818
 Alpha  occ. eigenvalues --  -56.34801 -27.45737 -23.51564 -23.51525 -23.51122
 Alpha  occ. eigenvalues --  -19.32734 -19.32693 -19.32675 -14.49863 -14.49846
 Alpha  occ. eigenvalues --  -14.47345 -10.40654 -10.40630 -10.40401 -10.36785
 Alpha  occ. eigenvalues --  -10.36613 -10.36607 -10.36074 -10.36032 -10.35781
 Alpha  occ. eigenvalues --  -10.34351 -10.34344 -10.34231 -10.34205 -10.33618
 Alpha  occ. eigenvalues --  -10.33498 -10.33491 -10.33434 -10.33262 -10.33255
 Alpha  occ. eigenvalues --  -10.33046 -10.33014 -10.32799 -10.32794 -10.32788
 Alpha  occ. eigenvalues --  -10.32538 -10.32443 -10.32209 -10.32195 -10.32026
 Alpha  occ. eigenvalues --  -10.32011 -10.31921 -10.31914 -10.31768 -10.31762
 Alpha  occ. eigenvalues --   -8.71046  -6.52809  -6.52703  -6.52644  -3.25138
 Alpha  occ. eigenvalues --   -2.63311  -2.63293  -2.63245  -2.63161  -2.63156
 Alpha  occ. eigenvalues --   -2.10833  -2.10497  -2.09787  -1.21788  -1.21702
 Alpha  occ. eigenvalues --   -1.21374  -1.07972  -1.07696  -1.02920  -1.00050
 Alpha  occ. eigenvalues --   -0.98152  -0.97361  -0.94131  -0.92931  -0.91174
 Alpha  occ. eigenvalues --   -0.90490  -0.89457  -0.88434  -0.87150  -0.86527
 Alpha  occ. eigenvalues --   -0.85024  -0.84782  -0.81750  -0.76461  -0.76316
 Alpha  occ. eigenvalues --   -0.75497  -0.75037  -0.75016  -0.74840  -0.74107
 Alpha  occ. eigenvalues --   -0.72251  -0.72051  -0.69996  -0.68745  -0.67278
 Alpha  occ. eigenvalues --   -0.65924  -0.64508  -0.64418  -0.64263  -0.63711
 Alpha  occ. eigenvalues --   -0.63597  -0.62384  -0.61804  -0.60605  -0.59690
 Alpha  occ. eigenvalues --   -0.59396  -0.57538  -0.57430  -0.57409  -0.57051
 Alpha  occ. eigenvalues --   -0.56226  -0.55995  -0.55669  -0.55558  -0.55276
 Alpha  occ. eigenvalues --   -0.54998  -0.54564  -0.54412  -0.54125  -0.53984
 Alpha  occ. eigenvalues --   -0.53284  -0.53219  -0.53099  -0.52780  -0.52287
 Alpha  occ. eigenvalues --   -0.52162  -0.51718  -0.51059  -0.50969  -0.50789
 Alpha  occ. eigenvalues --   -0.50632  -0.50417  -0.49922  -0.49394  -0.49044
 Alpha  occ. eigenvalues --   -0.48296  -0.48175  -0.47427  -0.47106  -0.46519
 Alpha  occ. eigenvalues --   -0.46117  -0.45456  -0.44720  -0.44331  -0.43519
 Alpha  occ. eigenvalues --   -0.42835  -0.41682  -0.41189  -0.40707  -0.40450
 Alpha  occ. eigenvalues --   -0.39928  -0.39186  -0.37604  -0.36278  -0.35755
 Alpha  occ. eigenvalues --   -0.35546  -0.33689  -0.33291  -0.33184  -0.32062
 Alpha  occ. eigenvalues --   -0.30956  -0.29870  -0.29658  -0.27890  -0.27112
 Alpha virt. eigenvalues --   -0.02927  -0.00144   0.00521   0.00660   0.02048
 Alpha virt. eigenvalues --    0.02335   0.02491   0.03740   0.04197   0.05523
 Alpha virt. eigenvalues --    0.05857   0.06871   0.07760   0.08223   0.08972
 Alpha virt. eigenvalues --    0.09380   0.09674   0.09851   0.11618   0.12241
 Alpha virt. eigenvalues --    0.12322   0.12924   0.13558   0.13695   0.14036
 Alpha virt. eigenvalues --    0.14396   0.14718   0.15281   0.15380   0.16186
 Alpha virt. eigenvalues --    0.16283   0.16566   0.17298   0.18089   0.18818
 Alpha virt. eigenvalues --    0.19072   0.19681   0.19729   0.20611   0.20776
 Alpha virt. eigenvalues --    0.20833   0.21865   0.22171   0.22224   0.22827
 Alpha virt. eigenvalues --    0.23023   0.23387   0.23530   0.24873   0.25202
 Alpha virt. eigenvalues --    0.26702   0.27544   0.27667   0.27873   0.28614
 Alpha virt. eigenvalues --    0.28880   0.30070   0.30158   0.30758   0.30853
 Alpha virt. eigenvalues --    0.31190   0.31709   0.32330   0.32941   0.32974
 Alpha virt. eigenvalues --    0.33281   0.33396   0.34001   0.34089   0.34188
 Alpha virt. eigenvalues --    0.34297   0.34994   0.35582   0.35760   0.36198
 Alpha virt. eigenvalues --    0.36338   0.36548   0.36817   0.36969   0.37351
 Alpha virt. eigenvalues --    0.38296   0.38421   0.38948   0.39212   0.39996
 Alpha virt. eigenvalues --    0.40360   0.40712   0.41865   0.42132   0.42170
 Alpha virt. eigenvalues --    0.42372   0.42609   0.42736   0.44135   0.44164
 Alpha virt. eigenvalues --    0.44642   0.45818   0.46295   0.47099   0.47313
 Alpha virt. eigenvalues --    0.47586   0.48426   0.48609   0.48735   0.49337
 Alpha virt. eigenvalues --    0.50314   0.50504   0.50887   0.51208   0.51570
 Alpha virt. eigenvalues --    0.52428   0.52553   0.52961   0.52995   0.53316
 Alpha virt. eigenvalues --    0.53442   0.53508   0.54461   0.54535   0.54802
 Alpha virt. eigenvalues --    0.55410   0.55496   0.56024   0.56144   0.56183
 Alpha virt. eigenvalues --    0.56883   0.57242   0.57916   0.58034   0.58578
 Alpha virt. eigenvalues --    0.59010   0.59721   0.59904   0.60260   0.60577
 Alpha virt. eigenvalues --    0.61002   0.61497   0.61732   0.62039   0.62728
 Alpha virt. eigenvalues --    0.63000   0.64079   0.64462   0.64728   0.64959
 Alpha virt. eigenvalues --    0.65868   0.66274   0.66736   0.66944   0.67248
 Alpha virt. eigenvalues --    0.67771   0.68443   0.68495   0.68777   0.69307
 Alpha virt. eigenvalues --    0.69768   0.70341   0.70458   0.70543   0.71672
 Alpha virt. eigenvalues --    0.71889   0.72047   0.72141   0.72584   0.72720
 Alpha virt. eigenvalues --    0.73128   0.73155   0.73597   0.73621   0.73977
 Alpha virt. eigenvalues --    0.74613   0.74694   0.74917   0.75132   0.75625
 Alpha virt. eigenvalues --    0.75958   0.76025   0.76230   0.76578   0.76913
 Alpha virt. eigenvalues --    0.77229   0.77278   0.77598   0.77820   0.78849
 Alpha virt. eigenvalues --    0.79083   0.79406   0.79639   0.80269   0.80433
 Alpha virt. eigenvalues --    0.80474   0.80705   0.81142   0.81683   0.81746
 Alpha virt. eigenvalues --    0.82337   0.82544   0.82907   0.83309   0.83810
 Alpha virt. eigenvalues --    0.84444   0.84817   0.85274   0.85551   0.85867
 Alpha virt. eigenvalues --    0.86002   0.86246   0.86666   0.87085   0.87460
 Alpha virt. eigenvalues --    0.87844   0.88080   0.88618   0.89214   0.89598
 Alpha virt. eigenvalues --    0.89931   0.90520   0.90991   0.91167   0.91261
 Alpha virt. eigenvalues --    0.91902   0.92291   0.92548   0.93348   0.94077
 Alpha virt. eigenvalues --    0.94900   0.95710   0.95829   0.96369   0.96748
 Alpha virt. eigenvalues --    0.97034   0.97586   0.97879   0.98079   0.99477
 Alpha virt. eigenvalues --    1.00119   1.00395   1.01888   1.02183   1.02316
 Alpha virt. eigenvalues --    1.02978   1.03555   1.05399   1.06312   1.07387
 Alpha virt. eigenvalues --    1.07874   1.08164   1.09437   1.10719   1.11385
 Alpha virt. eigenvalues --    1.11828   1.12754   1.13425   1.14740   1.15799
 Alpha virt. eigenvalues --    1.16035   1.16313   1.16770   1.17091   1.17715
 Alpha virt. eigenvalues --    1.17859   1.18467   1.18994   1.20726   1.21473
 Alpha virt. eigenvalues --    1.22124   1.22998   1.24062   1.25183   1.25629
 Alpha virt. eigenvalues --    1.26164   1.26488   1.26879   1.28059   1.28433
 Alpha virt. eigenvalues --    1.29467   1.29588   1.29660   1.30496   1.30581
 Alpha virt. eigenvalues --    1.30766   1.31431   1.31838   1.31883   1.32289
 Alpha virt. eigenvalues --    1.32440   1.33895   1.34151   1.34336   1.35005
 Alpha virt. eigenvalues --    1.35221   1.35473   1.35647   1.35862   1.36099
 Alpha virt. eigenvalues --    1.36210   1.37511   1.37652   1.38479   1.38919
 Alpha virt. eigenvalues --    1.39632   1.39770   1.41025   1.42154   1.42303
 Alpha virt. eigenvalues --    1.43686   1.44139   1.44929   1.45060   1.46492
 Alpha virt. eigenvalues --    1.47552   1.49153   1.50642   1.51002   1.52236
 Alpha virt. eigenvalues --    1.55392   1.55717   1.56073   1.58815   1.59747
 Alpha virt. eigenvalues --    1.60225   1.62293   1.62697   1.64489   1.64731
 Alpha virt. eigenvalues --    1.66445   1.66541   1.67793   1.67956   1.69464
 Alpha virt. eigenvalues --    1.70791   1.72083   1.72617   1.73045   1.73069
 Alpha virt. eigenvalues --    1.73240   1.73515   1.73868   1.74167   1.74856
 Alpha virt. eigenvalues --    1.75402   1.76043   1.77104   1.77283   1.77590
 Alpha virt. eigenvalues --    1.78304   1.78398   1.79234   1.79311   1.79679
 Alpha virt. eigenvalues --    1.79739   1.80429   1.80649   1.80793   1.81151
 Alpha virt. eigenvalues --    1.81570   1.81648   1.81754   1.82080   1.82289
 Alpha virt. eigenvalues --    1.82537   1.82675   1.82758   1.83209   1.83424
 Alpha virt. eigenvalues --    1.83870   1.84132   1.84742   1.84827   1.85251
 Alpha virt. eigenvalues --    1.85891   1.86076   1.86841   1.87371   1.88059
 Alpha virt. eigenvalues --    1.88677   1.89503   1.89980   1.90383   1.90629
 Alpha virt. eigenvalues --    1.90978   1.91067   1.92408   1.92826   1.94226
 Alpha virt. eigenvalues --    1.94478   1.94932   1.95894   1.96470   1.96582
 Alpha virt. eigenvalues --    1.97016   1.98037   1.98184   1.99420   1.99910
 Alpha virt. eigenvalues --    2.00625   2.00828   2.01514   2.01590   2.02601
 Alpha virt. eigenvalues --    2.03053   2.03578   2.03802   2.04413   2.04473
 Alpha virt. eigenvalues --    2.05031   2.05321   2.05512   2.06413   2.07112
 Alpha virt. eigenvalues --    2.08571   2.08871   2.09710   2.10200   2.10416
 Alpha virt. eigenvalues --    2.11239   2.11322   2.12043   2.13921   2.14667
 Alpha virt. eigenvalues --    2.15349   2.15458   2.16598   2.16872   2.17209
 Alpha virt. eigenvalues --    2.17926   2.18635   2.19600   2.19933   2.20458
 Alpha virt. eigenvalues --    2.20612   2.20935   2.21011   2.21479   2.23039
 Alpha virt. eigenvalues --    2.23797   2.23880   2.24486   2.25700   2.26574
 Alpha virt. eigenvalues --    2.26959   2.29461   2.29909   2.31262   2.31319
 Alpha virt. eigenvalues --    2.31540   2.32016   2.32519   2.34119   2.34452
 Alpha virt. eigenvalues --    2.34988   2.36622   2.36760   2.36915   2.37328
 Alpha virt. eigenvalues --    2.37989   2.38142   2.38527   2.39065   2.39707
 Alpha virt. eigenvalues --    2.40471   2.41193   2.41807   2.41921   2.42920
 Alpha virt. eigenvalues --    2.44120   2.45104   2.45395   2.46305   2.46828
 Alpha virt. eigenvalues --    2.47965   2.48436   2.50088   2.50481   2.50619
 Alpha virt. eigenvalues --    2.53907   2.55374   2.56955   2.57662   2.59101
 Alpha virt. eigenvalues --    2.60549   2.61069   2.61638   2.64022   2.64588
 Alpha virt. eigenvalues --    2.66066   2.66468   2.66870   2.67101   2.67485
 Alpha virt. eigenvalues --    2.68162   2.68226   2.70833   2.70957   2.71306
 Alpha virt. eigenvalues --    2.71409   2.71486   2.71787   2.72131   2.72186
 Alpha virt. eigenvalues --    2.72557   2.72781   2.74247   2.74579   2.74651
 Alpha virt. eigenvalues --    2.75594   2.76597   2.79294   2.79432   2.79810
 Alpha virt. eigenvalues --    2.80485   2.80558   2.80684   2.81739   2.82178
 Alpha virt. eigenvalues --    2.84561   2.85829   2.86288   2.87022   2.87409
 Alpha virt. eigenvalues --    2.89275   2.89625   2.91699   2.93392   2.94797
 Alpha virt. eigenvalues --    2.95779   2.97746   2.98122   2.99221   3.01121
 Alpha virt. eigenvalues --    3.03095   3.05073   3.06083   3.06177   3.07584
 Alpha virt. eigenvalues --    3.08553   3.09640   3.10099   3.11784   3.12679
 Alpha virt. eigenvalues --    3.15838   3.16122   3.19368   3.19842   3.20706
 Alpha virt. eigenvalues --    3.20929   3.21118   3.22162   3.23384   3.24895
 Alpha virt. eigenvalues --    3.25787   3.30059   3.31322   3.32692   3.34979
 Alpha virt. eigenvalues --    3.38179   3.39312   3.42132   3.47603   3.48553
 Alpha virt. eigenvalues --    3.50649   3.52004   3.55718   3.58098   3.62592
 Alpha virt. eigenvalues --    3.63115   3.63243   3.63754   3.64147   3.65783
 Alpha virt. eigenvalues --    3.66502   3.67116   3.69673   3.71902   3.72601
 Alpha virt. eigenvalues --    3.75737   3.76832   3.77277   3.82849   3.83082
 Alpha virt. eigenvalues --    3.90516   3.91095   3.95721   4.00178   4.06037
 Alpha virt. eigenvalues --    4.13908
          Condensed to atoms (all electrons):
 Mulliken charges:
               1
     1  Mn  -0.685732
     2  C    0.348891
     3  O   -0.071379
     4  C    0.350614
     5  O   -0.072737
     6  C    0.306044
     7  N   -0.213308
     8  C   -0.037434
     9  C    0.037467
    10  C    0.092987
    11  H    0.060906
    12  H    0.053801
    13  N    0.055706
    14  C    0.002473
    15  C   -0.155478
    16  C    0.024915
    17  C   -0.025175
    18  C    0.024909
    19  H    0.045280
    20  H    0.065658
    21  N   -0.211142
    22  C   -0.038674
    23  C    0.038087
    24  H    0.060396
    25  C    0.105235
    26  H    0.090063
    27  C    0.103943
    28  H    0.088542
    29  H    0.052280
    30  O   -0.090501
    31  C   -0.181834
    32  C   -0.084250
    33  C   -0.041870
    34  C    0.063508
    35  C   -0.066818
    36  C   -0.018556
    37  C   -0.018715
    38  C    0.015771
    39  C    0.080869
    40  H    0.035750
    41  H    0.043440
    42  H    0.032163
    43  C    0.081446
    44  C    0.015714
    45  C   -0.018645
    46  C   -0.019208
    47  C   -0.065180
    48  C    0.061312
    49  H    0.032360
    50  H    0.043775
    51  H    0.035363
    52  C   -0.043146
    53  H    0.054030
    54  C    0.093997
    55  H    0.062574
    56  H    0.063808
    57  C   -0.006409
    58  C   -0.023337
    59  H    0.053593
    60  H    0.056321
    61  Br  -0.810394
    62  H    0.021299
    63  H    0.044631
 Sum of Mulliken charges =  -0.00000
 Mulliken charges with hydrogens summed into heavy atoms:
               1
     1  Mn  -0.685732
     2  C    0.348891
     3  O   -0.071379
     4  C    0.350614
     5  O   -0.072737
     6  C    0.306044
     7  N   -0.213308
     8  C    0.023472
     9  C    0.091268
    10  C    0.156796
    13  N    0.055706
    14  C    0.002473
    15  C   -0.155478
    16  C    0.070196
    17  C    0.027105
    18  C    0.090567
    21  N   -0.211142
    22  C    0.021722
    23  C    0.092118
    25  C    0.195298
    27  C    0.192485
    30  O   -0.090501
    31  C   -0.137203
    32  C   -0.062951
    33  C   -0.041870
    34  C    0.063508
    35  C   -0.031068
    36  C    0.024884
    37  C    0.013447
    38  C    0.015771
    39  C    0.080869
    43  C    0.081446
    44  C    0.015714
    45  C    0.013714
    46  C    0.024567
    47  C   -0.029817
    48  C    0.061312
    52  C   -0.043146
    54  C    0.156570
    57  C    0.049912
    58  C    0.030256
    61  Br  -0.810394
 Electronic spatial extent (au):  <R**2>=          23402.2363
 Charge=             -0.0000 electrons
 Dipole moment (field-independent basis, Debye):
    X=             16.2590    Y=             13.8524    Z=              3.3806  Tot=             21.6257
 Quadrupole moment (field-independent basis, Debye-Ang):
   XX=           -290.1604   YY=           -248.4187   ZZ=           -224.3912
   XY=            -43.4779   XZ=             -9.5419   YZ=            -10.0039
 Traceless Quadrupole moment (field-independent basis, Debye-Ang):
   XX=            -35.8370   YY=              5.9048   ZZ=             29.9322
   XY=            -43.4779   XZ=             -9.5419   YZ=            -10.0039
 Octapole moment (field-independent basis, Debye-Ang**2):
  XXX=            371.7768  YYY=            147.9000  ZZZ=             24.3115  XYY=           -121.9814
  XXY=            168.3037  XXZ=             37.7892  XZZ=             26.3265  YZZ=             14.4980
  YYZ=             19.0694  XYZ=            -47.8087
 Hexadecapole moment (field-independent basis, Debye-Ang**3):
 XXXX=         -16641.7668 YYYY=          -6653.3301 ZZZZ=          -5812.7248 XXXY=           -758.5152
 XXXZ=           -174.1024 YYYX=           -391.5993 YYYZ=            294.2952 ZZZX=             24.7780
 ZZZY=           -257.8316 XXYY=          -4035.0804 XXZZ=          -3540.4429 YYZZ=          -2322.6555
 XXYZ=            -99.0821 YYXZ=           -115.3437 ZZXY=             33.1077
 N-N= 6.058155785680D+03 E-N=-2.494524622855D+04  KE= 5.399365527883D+03
 PrsmSu:  requested number of processors reduced to:  11 ShMem   1 Linda.
 D1PCM: PCM CHGder 1st derivatives, ID1Alg=3 FixD1E=F DoIter=F DoCFld=F I1PDM=0.
 CoulSu:  requested number of processors reduced to:  10 ShMem   1 Linda.
 CoulSu:  requested number of processors reduced to:  10 ShMem   1 Linda.
[...]
   D52       -3.08029  -0.00015   0.00000  -0.00407  -0.00405  -3.08435
   D53       -3.05468  -0.00021   0.00000  -0.00594  -0.00508  -3.05976
   D54        0.06345  -0.00006   0.00000  -0.00574  -0.00532   0.05813
   D55        2.51548  -0.00015   0.00000   0.00957   0.00812   2.52361
   D56        0.03521  -0.00117   0.00000  -0.00251  -0.00129   0.03392
   D57       -3.13839  -0.00139   0.00000  -0.01028  -0.00892   3.13588
   D58       -1.10967   0.00014   0.00000   0.00159  -3.13980   2.03372
   D59        3.13448   0.00018   0.00000  -0.00193  -0.00169   3.13279
   D60       -0.00281   0.00007   0.00000  -0.00138  -0.00085  -0.00366
   D61       -0.00134   0.00011   0.00000   0.00111   0.00081  -0.00053
   D62       -3.13863   0.00000   0.00000   0.00165   0.00165  -3.13698
   D63        0.00354  -0.00038   0.00000   0.00266   0.00206   0.00560
   D64       -3.13698  -0.00009   0.00000   0.00289   0.00241  -3.13457
   D65        3.13933  -0.00032   0.00000  -0.00041  -0.00046   3.13886
   D66       -0.00120  -0.00003   0.00000  -0.00018  -0.00012  -0.00132
   D67       -3.13766  -0.00011   0.00000  -0.00103  -0.00069  -3.13835
   D68        0.00286  -0.00009   0.00000  -0.00098  -0.00072   0.00214
   D69       -0.00042   0.00000   0.00000  -0.00156  -0.00153  -0.00195
   D70        3.14010   0.00002   0.00000  -0.00151  -0.00156   3.13854
   D71       -0.94375   0.00034   0.00000   0.01170   0.01067  -0.93309
   D72        2.20220   0.00024   0.00000   0.01224   0.01151   2.21371
   D73       -0.00184  -0.00001   0.00000  -0.00008  -0.00006  -0.00190
   D74        3.14075   0.00003   0.00000   0.00008   0.00014   3.14088
   D75        3.13867   0.00000   0.00000  -0.00003  -0.00009   3.13858
   D76       -0.00193   0.00004   0.00000   0.00012   0.00010  -0.00183
   D77       -0.93194  -0.00007   0.00000  -0.00695  -0.00678  -0.93872
   D78       -0.07515   0.00038   0.00000  -0.00290  -0.00332  -0.07846
   D79        2.20857  -0.00036   0.00000  -0.00718  -0.00713   2.20144
   D80        3.06536   0.00009   0.00000  -0.00314  -0.00366   3.06170
   D81        0.00223  -0.00008   0.00000  -0.00088  -0.00067   0.00157
   D82        3.14125  -0.00006   0.00000   0.00002  -0.00008   3.14117
   D83       -3.13830   0.00021   0.00000  -0.00066  -0.00033  -3.13862
   D84        0.00072   0.00023   0.00000   0.00025   0.00026   0.00099
   D85        1.45114   0.00065   0.00000  -0.01942  -0.01833   1.43281
   D86        2.93368  -0.00046   0.00000  -0.00893  -0.00774   2.92595
   D87       -0.16751  -0.00009   0.00000  -0.00585  -0.00499  -0.17250
   D88       -0.07065   0.00007   0.00000   0.00467   0.00423  -0.06643
   D89        3.11134   0.00044   0.00000   0.00775   0.00697   3.11831
   D90       -2.87789  -0.00002   0.00000   0.00864   0.00748  -2.87040
   D91        0.26674  -0.00010   0.00000   0.00283   0.00246   0.26920
   D92        0.11866  -0.00040   0.00000  -0.00512  -0.00478   0.11388
   D93       -3.01989  -0.00049   0.00000  -0.01094  -0.00981  -3.02970
   D94       -3.11827  -0.00060   0.00000  -0.00558  -0.00500  -3.12327
   D95        0.02761  -0.00032   0.00000  -0.00421  -0.00400   0.02361
   D96        0.05476  -0.00041   0.00000  -0.00170  -0.00157   0.05320
   D97       -3.08254  -0.00014   0.00000  -0.00034  -0.00056  -3.08310
   D98       -2.22099   0.00123   0.00000   0.03747   0.03394  -2.18706
   D99        0.88912   0.00103   0.00000   0.03351   0.03042   0.91954
   D100      -0.01393   0.00032   0.00000  -0.00142  -0.00118  -0.01511
   D101       3.08562  -0.00006   0.00000  -0.00467  -0.00408   3.08154
   D102      -3.12478   0.00050   0.00000   0.00246   0.00229  -3.12249
   D103      -0.02523   0.00012   0.00000  -0.00079  -0.00061  -0.02584
   D104       3.10623   0.00022   0.00000   0.00076   0.00024   3.10647
   D105      -0.01234   0.00012   0.00000   0.00141   0.00116  -0.01118
   D106      -0.03964  -0.00005   0.00000  -0.00059  -0.00076  -0.04040
   D107       3.12498  -0.00015   0.00000   0.00005   0.00015   3.12514
   D108      -2.98724  -0.00025   0.00000   0.00124   0.00046  -2.98678
   D109       0.14256  -0.00009   0.00000  -0.00096  -0.00079   0.14177
   D110      -3.13261   0.00026   0.00000   0.00809   0.00672  -3.12589
   D111      -0.00282   0.00042   0.00000   0.00590   0.00548   0.00266
   D112       0.18691  -0.00093   0.00000  -0.01709  -0.01598   0.17093
   D113      -2.96648  -0.00077   0.00000  -0.01928  -0.01723  -2.98371
   D114      -0.14070   0.00000   0.00000  -0.00022  -0.00002  -0.14072
   D115       2.98678   0.00013   0.00000  -0.00203  -0.00306   2.98372
   D116       0.00427  -0.00043   0.00000  -0.00684  -0.00628  -0.00201
   D117       3.13175  -0.00030   0.00000  -0.00865  -0.00932   3.12242
   D118       2.96831   0.00068   0.00000   0.01811   0.01643   2.98474
   D119      -0.18741   0.00081   0.00000   0.01630   0.01339  -0.17401
   D120       0.33222  -0.00003   0.00000   0.00824  -3.13365  -2.80143
   D121      -2.67315  -0.00011   0.00000   0.00328  -3.13820   0.47184
   D122       3.11838  -0.00007   0.00000   0.00070   0.00118   3.11957
   D123      -0.04285  -0.00011   0.00000   0.00183   0.00216  -0.04069
   D124      -0.04885   0.00080   0.00000   0.01766   0.01663  -0.03222
   D125       3.07310   0.00076   0.00000   0.01879   0.01761   3.09071
   D126      -3.05403  -0.00055   0.00000  -0.00727  -0.00627  -3.06031
   D127       0.06791  -0.00059   0.00000  -0.00614  -0.00529   0.06262
   D128       0.04469   0.00002   0.00000  -0.00300  -0.00293   0.04176
   D129      -3.11528   0.00002   0.00000  -0.00190  -0.00158  -3.11686
   D130      -3.07110  -0.00086   0.00000  -0.02015  -0.01847  -3.08956
   D131       0.05212  -0.00087   0.00000  -0.01905  -0.01712   0.03500
   D132      -0.06603   0.00052   0.00000   0.00498   0.00452  -0.06151
   D133       3.05719   0.00051   0.00000   0.00609   0.00587   3.06306
   D134       0.79858   0.00054   0.00000   0.00764   0.00705   0.80563
   D135      -2.38888   0.00064   0.00000   0.00391   0.00371  -2.38517
   D136      -2.31822   0.00038   0.00000   0.00743   0.00731  -2.31092
   D137       0.77751   0.00048   0.00000   0.00371   0.00397   0.78147
   D138       3.08007   0.00000   0.00000  -0.00531  -0.00501   3.07506
   D139      -0.01758   0.00006   0.00000  -0.00368  -0.00347  -0.02105
   D140      -0.01662  -0.00009   0.00000  -0.00159  -0.00166  -0.01829
   D141      -3.11428  -0.00003   0.00000   0.00004  -0.00012  -3.11439
   D142       0.10616  -0.00000   0.00000   0.00396   0.00445   0.11061
   D143      -3.02350  -0.00017   0.00000   0.00615   0.00567  -3.01783
   D144      -3.08093   0.00014   0.00000   0.00032   0.00111  -3.07983
   D145       0.07260  -0.00003   0.00000   0.00250   0.00232   0.07492
   D146      -0.03577   0.00006   0.00000  -0.00058  -0.00057  -0.03634
   D147       3.13925   0.00004   0.00000   0.00074   0.00065   3.13990
   D148       3.06221   0.00000   0.00000  -0.00220  -0.00209   3.06012
   D149      -0.04595  -0.00002   0.00000  -0.00088  -0.00087  -0.04683
   D150       0.03025  -0.00005   0.00000   0.00162   0.00180   0.03204
   D151      -3.10482  -0.00005   0.00000   0.00156   0.00142  -3.10339
   D152       3.13794  -0.00002   0.00000   0.00029   0.00057   3.13851
   D153       0.00288  -0.00003   0.00000   0.00023   0.00020   0.00307
   D154      -3.13456  -0.00011   0.00000   0.00051   0.00008  -3.13448
   D155       0.02687  -0.00009   0.00000  -0.00071  -0.00097   0.02590
   D156       0.00065  -0.00010   0.00000   0.00057   0.00044   0.00110
   D157      -3.12110  -0.00009   0.00000  -0.00065  -0.00061  -3.12171
   D158      -0.04743  -0.00002   0.00000  -0.00034  -0.00076  -0.04819
   D159       3.08290   0.00012   0.00000  -0.00248  -0.00196   3.08094
   D160       3.07501  -0.00004   0.00000   0.00077   0.00016   3.07517
   D161      -0.07785   0.00010   0.00000  -0.00136  -0.00103  -0.07888
   D162       0.04392   0.00011   0.00000   0.00253   0.00229   0.04621
   D163      -3.07984   0.00012   0.00000   0.00150   0.00099  -3.07884
   D164      -3.08411  -0.00001   0.00000   0.00425   0.00523  -3.07888
   D165       0.07532  -0.00000   0.00000   0.00322   0.00393   0.07925
   D166       3.08756  -0.00025   0.00000  -0.00333  -0.00247   3.08508
   D167      -0.10318  -0.00025   0.00000  -0.00728  -0.00714  -0.11032
   D168      -0.06837  -0.00010   0.00000  -0.00509  -0.00549  -0.07385
   D169       3.02408  -0.00010   0.00000  -0.00904  -0.01015   3.01394
   D170       3.13247   0.00005   0.00000  -0.00036  -0.00107   3.13140
   D171      -0.00221   0.00005   0.00000  -0.00060  -0.00101  -0.00322
   D172      -0.02766   0.00007   0.00000   0.00081   0.00035  -0.02732
   D173       3.12085   0.00006   0.00000   0.00058   0.00040   3.12125
   D174      -0.02754  -0.00006   0.00000  -0.00320  -0.00324  -0.03078
   D175      -3.13643   0.00001   0.00000  -0.00063  -0.00035  -3.13678
   D176       3.10698  -0.00005   0.00000  -0.00296  -0.00328   3.10369
   D177      -0.00191   0.00002   0.00000  -0.00039  -0.00039  -0.00231
   D178       0.03485   0.00002   0.00000   0.00138   0.00177   0.03663
   D179      -3.06362   0.00008   0.00000   0.00345   0.00395  -3.05967
   D180      -3.13903  -0.00005   0.00000  -0.00115  -0.00107  -3.14010
   D181       0.04568   0.00002   0.00000   0.00092   0.00111   0.04679
   D182       0.01396   0.00016   0.00000   0.00296   0.00277   0.01673
   D183      -3.07902   0.00015   0.00000   0.00682   0.00742  -3.07160
   D184       3.11213   0.00009   0.00000   0.00085   0.00055   3.11268
   D185       0.01915   0.00008   0.00000   0.00471   0.00520   0.02435
   D186       2.38249  -0.00033   0.00000  -0.00235  -0.00105   2.38144
   D187      -0.78291  -0.00023   0.00000  -0.00303  -0.00201  -0.78491
   D188      -0.80882  -0.00031   0.00000  -0.00621  -0.00569  -0.81451
   D189       2.30897  -0.00021   0.00000  -0.00689  -0.00665   2.30232
   D190      -0.07748   0.00025   0.00000   0.00209   0.00208  -0.07540
   D191       3.06099   0.00034   0.00000   0.00807   0.00725   3.06823
   D192       3.08652   0.00020   0.00000   0.00280   0.00303   3.08955
   D193      -0.05819   0.00028   0.00000   0.00878   0.00819  -0.05000
   D194      -0.00073   0.00009   0.00000   0.00102   0.00076   0.00003
   D195      -3.13974   0.00008   0.00000   0.00012   0.00017  -3.13957
   D196       3.13987   0.00005   0.00000   0.00086   0.00057   3.14043
   D197       0.00085   0.00004   0.00000  -0.00004  -0.00002   0.00083
         Item               Value     Threshold  Converged?
 Maximum Force            0.027212     0.000450     NO 
 RMS     Force            0.002083     0.000300     NO 
 Maximum Displacement     0.185307     0.001800     NO 
 RMS     Displacement     0.036667     0.001200     NO 
 Predicted change in Energy=-7.077085D-03
 GradGradGradGradGradGradGradGradGradGradGradGradGradGradGradGradGradGrad

 Stoichiometry    C34H21BrMnN3O3
 Framework group  C1[X(C34H21BrMnN3O3)]
 Deg. of freedom   183
 Full point group                 C1      NOp   1
 Largest Abelian subgroup         C1      NOp   1
 Largest concise Abelian subgroup C1      NOp   1
                         Standard orientation:                         
 ---------------------------------------------------------------------
 Center     Atomic      Atomic             Coordinates (Angstroms)
 Number     Number       Type             X           Y           Z
 ---------------------------------------------------------------------
      1         25           0       -1.725318   -1.725008   -0.398695
      2          6           0       -2.700830   -2.189546   -1.880660
      3          8           0       -3.202975   -2.561628   -2.839521
      4          6           0       -2.635451   -2.909433    0.662117
      5          8           0       -3.088324   -3.735061    1.313041
      6          6           0       -0.606745   -3.039172   -0.802692
      7          7           0       -0.594077   -1.247718    1.403438
      8          6           0       -0.615987   -0.255568    3.581567
      9          6           0        0.772621   -0.159109    3.573752
     10          6           0        0.736473   -1.237942    1.446716
     11          1           0       -1.203702    0.113999    4.422340
     12          1           0        1.300730    0.309948    4.407230
     13          7           0       -2.048050    0.723572    0.265282
     14          6           0       -2.062322    1.849398    0.520878
     15          6           0       -2.119909    3.264537    0.752568
     16          6           0       -0.926776    3.996092    0.824830
     17          6           0       -0.976757    5.370398    1.038801
     18          6           0       -3.359498    3.903183    0.894171
     19          1           0        0.030234    3.485239    0.708328
     20          1           0       -4.289614    3.335563    0.835657
     21          7           0       -0.646032   -0.366152   -1.736364
     22          6           0       -0.739623    1.632109   -3.047402
     23          6           0        0.649857    1.732994   -3.033490
     24          1           0       -1.357737    2.381272   -3.541555
     25          6           0       -1.260659   -0.789729    2.475718
     26          1           0       -2.351310   -0.824492    2.425197
     27          6           0       -1.346378    0.577493   -2.382834
     28          1           0       -2.434735    0.501752   -2.328280
     29          1           0       -0.050470    5.945076    1.092831
     30          8           0        0.108310   -3.903459   -1.067624
     31          6           0        2.986349    0.227681    0.062354
     32          6           0        5.725046   -0.091163   -0.067421
     33          6           0        1.483939   -0.664206    2.482755
     34          6           0        2.967350   -0.634786    2.414408
     35          6           0        3.708951   -1.027825    3.500920
     36          6           0        5.131997   -1.091671    3.452565
     37          6           0        5.797288   -0.800245    2.298200
     38          6           0        5.075284   -0.388332    1.131089
     39          6           0        3.651380   -0.254012    1.195008
     40          1           0        3.199820   -1.340968    4.415822
     41          1           0        5.679905   -1.408558    4.342446
     42          1           0        6.885818   -0.880744    2.241456
     43          6           0        3.615038    0.425520   -1.168536
     44          6           0        5.040451    0.287767   -1.226141
     45          6           0        5.720901    0.560863   -2.457429
     46          6           0        5.015495    0.916744   -3.570423
     47          6           0        3.591240    0.985476   -3.534527
     48          6           0        2.887219    0.740887   -2.381485
     49          1           0        6.809938    0.472234   -2.488173
     50          1           0        5.532954    1.120691   -4.510433
     51          1           0        3.051371    1.197406   -4.460758
     52          6           0        1.398932    0.734824   -2.405413
     53          1           0        1.149925    2.583657   -3.502828
     54          6           0        0.683772   -0.313939   -1.808599
     55          1           0        1.227374   -1.149495   -1.367485
     56          1           0        1.254325   -1.712892    0.612872
     57          6           0       -2.207743    6.009613    1.182161
     58          6           0       -3.393953    5.278159    1.109983
     59          1           0       -4.355140    5.782420    1.220793
     60          1           0       -2.243921    7.088762    1.350750
     61         35           0       -4.602588   -0.921433   -0.106912
     62          1           0        6.826202   -0.150546   -0.092427
     63          1           0        1.920881    0.475938    0.150786
 ---------------------------------------------------------------------
 Rotational constants (GHZ):           0.0921832           0.0561011           0.0518186
 Basis read from rwf:  (5D, 7F)
 There are   802 symmetry adapted cartesian basis functions of A   symmetry.
 There are   751 symmetry adapted basis functions of A   symmetry.
   751 basis functions,  1339 primitive gaussians,   802 cartesian basis functions
   165 alpha electrons      165 beta electrons
       nuclear repulsion energy      6070.7948892719 Hartrees.
 NAtoms=   63 NActive=   63 NUniq=   63 SFac= 1.00D+00 NAtFMM=   60 NAOKFM=T Big=T
 Integral buffers will be    131072 words long.
 Raffenetti 2 integral format.
 Two-electron integral symmetry is turned on.
 Nuclear repulsion after empirical dispersion term =     6070.7294399743 Hartrees.
 ------------------------------------------------------------------------------
 Polarizable Continuum Model (PCM)
 =================================
 Model                : PCM.
 Atomic radii         : UFF (Universal Force Field).
 Polarization charges : Total charges.
 Charge compensation  : None.
 Solution method      : On-the-fly selection.
 Cavity type          : Scaled VdW (van der Waals Surface) (Alpha=1.100).
 Cavity algorithm     : GePol (No added spheres)
                        Default sphere list used, NSphG=   63.
                        Lebedev-Laikov grids with approx.  5.0 points / Ang**2.
                        Smoothing algorithm: York/Karplus (Gamma=1.0000).
                        Polarization charges: spherical gaussians, with
                                              point-specific exponents (IZeta= 3).
                        Self-potential: point-specific (ISelfS= 7).
                        Self-field    : sphere-specific E.n sum rule (ISelfD= 2).
 1st derivatives      : Analytical E(r).r(x)/FMM algorithm (CHGder, D1EAlg=3).
                        Cavity 1st derivative terms included.
 Solvent              : TetraHydroFuran, Eps=   7.425700 Eps(inf)=   1.974025
 ------------------------------------------------------------------------------
 One-electron integrals computed using PRISM.
 PrsmSu:  requested number of processors reduced to:  11 ShMem   1 Linda.
 NBasis=   751 RedAO= T EigKep=  2.25D-04  NBF=   751
 NBsUse=   751 1.00D-06 EigRej= -1.00D+00 NBFU=   751
 Initial guess from the checkpoint file:  "checkpoint.chk"
 B after Tr=    -0.000000   -0.000000    0.000000
         Rot=    0.999968    0.003003   -0.001483    0.007236 Ang=   0.91 deg.
 ExpMin= 3.93D-02 ExpMax= 2.77D+05 ExpMxC= 1.70D+04 IAcc=3 IRadAn=         5 AccDes= 0.00D+00
 Harris functional with IExCor= 4639 and IRadAn=       5 diagonalized for initial guess.
 HarFok:  IExCor= 4639 AccDes= 0.00D+00 IRadAn=         5 IDoV= 1 UseB2=F ITyADJ=14
 ICtDFT=  3500011 ScaDFX=  1.000000  1.000000  1.000000  1.000000
 FoFCou: FMM=F IPFlag=           0 FMFlag=      100000 FMFlg1=        2001
         NFxFlg=           0 DoJE=T BraDBF=F KetDBF=T FulRan=T
         wScrn=  0.000000 ICntrl=       500 IOpCl=  0 I1Cent=   200000004 NGrid=           0
         NMat0=    1 NMatS0=      1 NMatT0=    0 NMatD0=    1 NMtDS0=    0 NMtDT0=    0
 Petite list used in FoFCou.
 Requested convergence on RMS density matrix=1.00D-08 within 128 cycles.
 Requested convergence on MAX density matrix=1.00D-06.
 Requested convergence on             energy=1.00D-06.
 No special actions if energy rises.
 CoulSu:  requested number of processors reduced to:   9 ShMem   1 Linda.
 Inv3:  Mode=1 IEnd=    68659968.
 Iteration    1 A*A^-1 deviation from unit magnitude is 3.44D-15 for   2802.
 Iteration    1 A*A^-1 deviation from orthogonality  is 2.75D-15 for   3094   2794.
 Iteration    1 A^-1*A deviation from unit magnitude is 3.22D-15 for   2802.
 Iteration    1 A^-1*A deviation from orthogonality  is 1.89D-15 for   2253    753.
 CoulSu:  requested number of processors reduced to:   9 ShMem   1 Linda.
 CoulSu:  requested number of processors reduced to:   9 ShMem   1 Linda.
