 Entering Gaussian System, Link 0=g16
 Initial command:
 /home1/apps/gaussian/16rA.03/g16/l1.exe "/tmp/Gau-66619.inp" -scrdir="/tmp/"
 Entering Link 1 = /home1/apps/gaussian/16rA.03/g16/l1.exe PID=     66621.
  
 Copyright (c) 1988,1990,1992,1993,1995,1998,2003,2009,2016,
            Gaussian, Inc.  All Rights Reserved.
  
 This is part of the Gaussian(R) 16 program.  It is based on
 the Gaussian(R) 09 system (copyright 2009, Gaussian, Inc.),
 the Gaussian(R) 03 system (copyright 2003, Gaussian, Inc.),
 the Gaussian(R) 98 system (copyright 1998, Gaussian, Inc.),
 the Gaussian(R) 94 system (copyright 1995, Gaussian, Inc.),
 the Gaussian 92(TM) system (copyright 1992, Gaussian, Inc.),
 the Gaussian 90(TM) system (copyright 1990, Gaussian, Inc.),
 the Gaussian 88(TM) system (copyright 1988, Gaussian, Inc.),
 the Gaussian 86(TM) system (copyright 1986, Carnegie Mellon
 University), and the Gaussian 82(TM) system (copyright 1983,
 Carnegie Mellon University). Gaussian is a federally registered
 trademark of Gaussian, Inc.
  
 This software contains proprietary and confidential information,
 including trade secrets, belonging to Gaussian, Inc.
  
 This software is provided under written license and may be
 used, copied, transmitted, or stored only in accord with that
 written license.
  
 The following legend is applicable only to US Government
 contracts under FAR:
  
                    RESTRICTED RIGHTS LEGEND
  
 Use, reproduction and disclosure by the US Government is
 subject to restrictions as set forth in subparagraphs (a)
 and (c) of the Commercial Computer Software - Restricted
 Rights clause in FAR 52.227-19.
  
 Gaussian, Inc.
 340 Quinnipiac St., Bldg. 40, Wallingford CT 06492
  
  
 ---------------------------------------------------------------
 Warning -- This program may not be used in any manner that
 competes with the business of Gaussian, Inc. or will provide
 assistance to any competitor of Gaussian, Inc.  The licensee
 of this program is prohibited from giving any competitor of
 Gaussian, Inc. access to this program.  By using this program,
 the user acknowledges that Gaussian, Inc. is engaged in the
 business of creating and licensing software in the field of
 computational chemistry and represents and warrants to the
 licensee that it is not a competitor of Gaussian, Inc. and that
 it will not use this program in any manner prohibited above.
 ---------------------------------------------------------------
  

 Cite this work as:
 Gaussian 16, Revision A.03,
 M. J. Frisch, G. W. Trucks, H. B. Schlegel, G. E. Scuseria, 
 M. A. Robb, J. R. Cheeseman, G. Scalmani, V. Barone, 
 G. A. Petersson, H. Nakatsuji, X. Li, M. Caricato, A. V. Marenich, 
 J. Bloino, B. G. Janesko, R. Gomperts, B. Mennucci, H. P. Hratchian, 
 J. V. Ortiz, A. F. Izmaylov, J. L. Sonnenberg, D. Williams-Young, 
 F. Ding, F. Lipparini, F. Egidi, J. Goings, B. Peng, A. Petrone, 
 T. Henderson, D. Ranasinghe, V. G. Zakrzewski, J. Gao, N. Rega, 
 G. Zheng, W. Liang, M. Hada, M. Ehara, K. Toyota, R. Fukuda, 
 J. Hasegawa, M. Ishida, T. Nakajima, Y. Honda, O. Kitao, H. Nakai, 
 T. Vreven, K. Throssell, J. A. Montgomery, Jr., J. E. Peralta, 
 F. Ogliaro, M. J. Bearpark, J. J. Heyd, E. N. Brothers, K. N. Kudin, 
 V. N. Staroverov, T. A. Keith, R. Kobayashi, J. Normand, 
 K. Raghavachari, A. P. Rendell, J. C. Burant, S. S. Iyengar, 
 J. Tomasi, M. Cossi, J. M. Millam, M. Klene, C. Adamo, R. Cammi, 
 J. W. Ochterski, R. L. Martin, K. Morokuma, O. Farkas, 
 J. B. Foresman, and D. J. Fox, Gaussian, Inc., Wallingford CT, 2016.
 
 ******************************************
 Gaussian 16:  ES64L-G16RevA.03 25-Dec-2016
                22-Oct-2022 
 ******************************************
 %Chk=checkpoint.chk
 %NProcShared=12
 Will use up to   12 processors via shared memory.
 ------------------------------------------------------
 # wB97XD Gen Opt=(QST2) SCRF=(Solvent=TetraHydroFuran)
 ------------------------------------------------------
 1/5=1,18=20,26=3,27=202,38=1/1,3;
 2/9=110,12=2,17=6,18=5,40=1/2;
 3/5=7,11=2,25=1,30=1,70=2201,71=1,72=20,74=-58/1,2,3;
 4//1;
 5/5=2,38=5,53=20/2;
 6/7=2,8=2,9=2,10=2,28=1/1;
 7//1,2,3,16;
 1/5=1,18=20,26=3,27=202/3(2);
 2/9=110/2;
 99//99;
 2/9=110/2;
 3/5=7,6=1,11=2,25=1,30=1,70=2205,71=1,72=20,74=-58,82=7/1,2,3;
 4/5=5,16=3,69=1/1;
 5/5=2,38=5,53=20/2;
 7//1,2,3,16;
 1/5=1,18=20,26=3,27=202/3(-5);
 2/9=110/2;
 6/7=2,8=2,9=2,10=2,19=2,28=1/1;
 99/9=1/99;
 ----------------------------
 Mn Transition State Reactant
 ----------------------------
 Symbolic Z-matrix:
 Charge =  0 Multiplicity = 1
 Mn                    0.        0.        0. 
 C                    -0.09679   1.8323    0.02295 
 C                     0.        0.       -1.82342 
 C                     1.83282   0.       -0.02938 
 Br                    2.3094    2.3094    2.3094 
 N                    -0.04922  -2.15482   0.09332 
 N                    -2.15153  -0.14036   0.09515 
 C                     0.52385  -2.93988  -0.8355 
 C                     0.57609  -4.32182  -0.71618 
 C                     0.03787  -4.93262   0.41495 
 C                    -0.56724  -4.13205   1.38331 
 C                    -0.59422  -2.75751   1.15179 
 C                    -2.76019  -0.33999   1.26803 
 C                    -4.08404  -0.75052   1.40528 
 C                    -2.90821  -0.24504  -1.01025 
 C                    -4.25761  -0.57119  -0.97276 
 C                    -4.8572   -0.85573   0.2508 
 C                    -4.54612  -1.14763   2.76568 
 C                    -1.06072  -4.64508   2.69242 
 C                    -2.36035  -4.39435   3.17469 
 C                    -4.2951   -2.45577   3.22064 
 C                    -2.7088   -4.77698   4.4776 
 C                    -4.6235   -2.81682   4.53378 
 C                    -5.16246  -0.23395   3.6234 
 C                    -0.16193  -5.33835   3.51187 
 C                    -0.5204   -5.73496   4.79711 
 C                    -5.49479  -0.60032   4.92642 
 C                    -5.20842  -1.88092   5.39075 
 C                    -1.78362  -5.43139   5.29359 
 S                    -3.59561  -3.66717   2.11779 
 S                    -4.34059  -4.47249   5.11215 
 H                     1.05087  -4.91025  -1.50139 
 H                     0.08951  -6.01597   0.54182 
 H                    -1.07315  -2.12266   1.89001 
 H                    -2.16282  -0.19695   2.1652 
 H                    -2.4226   -0.06909  -1.96947 
 H                    -4.81913  -0.6322   -1.90505 
 H                    -5.90099  -1.1706    0.30616 
 H                    -5.36522   0.7782    3.26819 
 H                     0.84657  -5.53732   3.14359 
 H                     0.19986  -6.26023   5.42631 
 H                    -5.96589   0.12432   5.59251 
 H                    -5.4428   -2.16193   6.41931 
 H                    -2.05931  -5.70427   6.31399 
 O                     0.06255   0.01915  -2.96537 
 O                     2.97377  -0.00521  -0.04518 
 O                    -0.17883   2.9698    0.0391 
 H                     0.9665   -2.44597  -1.70172 
 N                     0.1205   -0.06435   2.03055 
 C                     0.1757   -0.32041   3.1556 
 C                     0.0988   -0.78664   4.50696 
 C                     1.18058  -0.65782   5.389 
 C                    -1.08395  -1.43608   4.90265 
 C                     1.07101  -1.1882    6.67028 
 H                     2.09302  -0.15307   5.06933 
 C                    -1.1749   -1.96428   6.18414 
 H                    -1.92637  -1.52866   4.21411 
 C                    -0.09853  -1.84109   7.06447 
 H                     1.90634  -1.09472   7.36578 
 H                    -2.08869  -2.47607   6.49182 
 H                    -0.17211  -2.25847   8.07044 
 
 Add virtual bond connecting atoms C2         and Br5        Dist= 6.34D+00.
 Add virtual bond connecting atoms C4         and Br5        Dist= 6.28D+00.
 Add virtual bond connecting atoms O46        and Br5        Dist= 6.36D+00.
 Add virtual bond connecting atoms N49        and Br5        Dist= 6.12D+00.
 ---------------------------
 Mn Transition State Product
 ---------------------------
 Symbolic Z-matrix:
 Charge =  0 Multiplicity = 1
 Mn                    0.        0.        0. 
 C                    -0.08831   1.81915   0.02694 
 C                     0.        0.       -1.79318 
 C                     1.82129   0.        0.02701 
 Br                    0.21406   0.22525   2.60296 
 N                    -0.00198  -2.15626   0.10267 
 N                    -2.15359  -0.10666   0.10261 
 C                     0.38734  -2.90055  -0.94769 
 C                     0.33894  -4.28645  -0.94857 
 C                    -0.15783  -4.94905   0.17197 
 C                    -0.57167  -4.19114   1.26468 
 C                    -0.44573  -2.80197   1.18369 
 C                    -2.77703  -0.58203   1.18326 
 C                    -4.15855  -0.77451   1.26439 
 C                    -2.91591   0.24739  -0.9473 
 C                    -4.29788   0.13244  -0.94805 
 C                    -4.93564  -0.39652   0.17216 
 C                    -4.73565  -1.36773   2.50277 
 C                    -1.13591  -4.79615   2.50328 
 C                    -2.48294  -4.59586   2.85783 
 C                    -4.47     -2.70335   2.85753 
 C                    -2.9782   -5.11928   4.05963 
 C                    -4.96894  -3.2234    4.05928 
 C                    -5.54655  -0.59398   3.33896 
 C                    -0.32361  -5.56806   3.33979 
 C                    -0.82204  -6.0942    4.52932 
 C                    -6.04809  -1.11734   4.52841 
 C                    -5.74193  -2.42245   4.90321 
 C                    -2.14059  -5.85203   4.90386 
 S                    -3.58496  -3.76369   1.73597 
 S                    -4.6875   -4.9209    4.50034 
 H                     0.67663  -4.83606  -1.82736 
 H                    -0.23113  -6.03846   0.19274 
 H                    -0.69729  -2.18819   2.04804 
 H                    -2.15175  -0.80469   2.04727 
 H                    -2.4021    0.64317  -1.82367 
 H                    -4.86325   0.44411  -1.82647 
 H                    -6.02029  -0.52198   0.19305 
 H                    -5.76345   0.43908   3.05961 
 H                     0.71885  -5.73439   3.0606 
 H                    -0.17222  -6.6814    5.18043 
 H                    -6.66649  -0.49688   5.17925 
 H                    -6.10842  -2.82852   5.84804 
 H                    -2.52842  -6.23768   5.84873 
 O                     0.04791   0.05036  -2.9414 
 O                     2.96474  -0.00968   0.05082 
 O                    -0.15349   2.9608    0.05043 
 H                     0.75715  -2.36822  -1.82434 
 N                    -1.50756  -1.50756   4.52267 
 C                    -0.79853  -0.79853   5.10159 
 C                     0.08324   0.08245   5.82116 
 C                     1.37052  -0.3521    6.16966 
 C                    -0.35128   1.37008   6.16951 
 C                     2.21765   0.50512   6.8656 
 H                     1.69972  -1.35536   5.89455 
 C                     0.50579   2.21708   6.8654 
 H                    -1.35452   1.69898   5.89401 
 C                     1.78709   1.78636   7.21277 
 H                     3.22002   0.17043   7.13837 
 H                     0.17133   3.21953   7.13816 
 H                     2.45568   2.45491   7.75891 
 
 Add virtual bond connecting atoms N49        and H34        Dist= 5.09D+00.
 Add virtual bond connecting atoms N49        and H35        Dist= 5.01D+00.
 Iteration  1 RMS(Cart)=  0.25984078 RMS(Int)=  0.71966118
 Iteration  2 RMS(Cart)=  0.10404951 RMS(Int)=  0.70922830
 Iteration  3 RMS(Cart)=  0.08973218 RMS(Int)=  0.70144822
 Iteration  4 RMS(Cart)=  0.08356963 RMS(Int)=  0.69273596
 Iteration  5 RMS(Cart)=  0.06316183 RMS(Int)=  0.68508334
 Iteration  6 RMS(Cart)=  0.06156193 RMS(Int)=  0.68011258
 Iteration  7 RMS(Cart)=  0.06215311 RMS(Int)=  0.67696674
 Iteration  8 RMS(Cart)=  0.06077033 RMS(Int)=  0.67513251
 Iteration  9 RMS(Cart)=  0.05075113 RMS(Int)=  0.67396941
 Iteration 10 RMS(Cart)=  0.05136360 RMS(Int)=  0.67319176
 Iteration 11 RMS(Cart)=  0.05043792 RMS(Int)=  0.67277812
 Iteration 12 RMS(Cart)=  0.04696726 RMS(Int)=  0.67267935
 Iteration 13 RMS(Cart)=  0.02505081 RMS(Int)=  0.67289949
 Iteration 14 RMS(Cart)=  0.01111923 RMS(Int)=  0.67322980
 Iteration 15 RMS(Cart)=  0.01159915 RMS(Int)=  0.67369297
 Iteration 16 RMS(Cart)=  0.01108130 RMS(Int)=  0.67430337
 Iteration 17 RMS(Cart)=  0.00999018 RMS(Int)=  0.67499548
 Iteration 18 RMS(Cart)=  0.00807265 RMS(Int)=  0.67569780
 Iteration 19 RMS(Cart)=  0.00620074 RMS(Int)=  0.67638028
 Iteration 20 RMS(Cart)=  0.00618588 RMS(Int)=  0.67711705
 Iteration 21 RMS(Cart)=  0.00696279 RMS(Int)=  0.67793268
 Iteration 22 RMS(Cart)=  0.01016438 RMS(Int)=  0.67885811
 Iteration 23 RMS(Cart)=  0.01172653 RMS(Int)=  0.67987618
 Iteration 24 RMS(Cart)=  0.01137225 RMS(Int)=  0.68085509
 Iteration 25 RMS(Cart)=  0.00960776 RMS(Int)=  0.68173858
 Iteration 26 RMS(Cart)=  0.00897633 RMS(Int)=  0.68253903
 Iteration 27 RMS(Cart)=  0.00865576 RMS(Int)=  0.68326236
 Iteration 28 RMS(Cart)=  0.00836951 RMS(Int)=  0.68391245
 Iteration 29 RMS(Cart)=  0.00774272 RMS(Int)=  0.68447066
 Iteration 30 RMS(Cart)=  0.00723824 RMS(Int)=  0.68495481
 Iteration 31 RMS(Cart)=  0.00686766 RMS(Int)=  0.68537728
 Iteration 32 RMS(Cart)=  0.00657251 RMS(Int)=  0.68574795
 Iteration 33 RMS(Cart)=  0.00632929 RMS(Int)=  0.68607520
 Iteration 34 RMS(Cart)=  0.00612871 RMS(Int)=  0.68636621
 Iteration 35 RMS(Cart)=  0.00557724 RMS(Int)=  0.68657949
 Iteration 36 RMS(Cart)=  0.00488199 RMS(Int)=  0.68672795
 Iteration 37 RMS(Cart)=  0.00430461 RMS(Int)=  0.68683521
 Iteration 38 RMS(Cart)=  0.00386718 RMS(Int)=  0.68691345
 Iteration 39 RMS(Cart)=  0.00353936 RMS(Int)=  0.68696375
 Iteration 40 RMS(Cart)=  0.00349572 RMS(Int)=  0.68699375
 Iteration 41 RMS(Cart)=  0.00344653 RMS(Int)=  0.68700851
 Iteration 42 RMS(Cart)=  0.00341000 RMS(Int)=  0.68701177
 Iteration 43 RMS(Cart)=  0.00339781 RMS(Int)=  0.68700624
 Iteration 44 RMS(Cart)=  0.00341772 RMS(Int)=  0.68699380
 Iteration 45 RMS(Cart)=  0.00325570 RMS(Int)=  0.68697588
 Iteration 46 RMS(Cart)=  0.00295223 RMS(Int)=  0.68692733
 Iteration 47 RMS(Cart)=  0.00236279 RMS(Int)=  0.68685850
 Iteration 48 RMS(Cart)=  0.00177487 RMS(Int)=  0.68678660
 Iteration 49 RMS(Cart)=  0.00135441 RMS(Int)=  0.68671734
 Iteration 50 RMS(Cart)=  0.00105180 RMS(Int)=  0.68665276
 Iteration 51 RMS(Cart)=  0.00082883 RMS(Int)=  0.68659341
 Iteration 52 RMS(Cart)=  0.00066099 RMS(Int)=  0.68653921
 Iteration 53 RMS(Cart)=  0.00053245 RMS(Int)=  0.68648983
 Iteration 54 RMS(Cart)=  0.00043281 RMS(Int)=  0.68644478
 Iteration 55 RMS(Cart)=  0.00035495 RMS(Int)=  0.68640360
 Iteration 56 RMS(Cart)=  0.00029384 RMS(Int)=  0.68636583
 Iteration 57 RMS(Cart)=  0.00024578 RMS(Int)=  0.68633102
 Iteration 58 RMS(Cart)=  0.00020802 RMS(Int)=  0.68629882
 Iteration 59 RMS(Cart)=  0.00017840 RMS(Int)=  0.68626888
 Iteration 60 RMS(Cart)=  0.00015526 RMS(Int)=  0.68624092
 Iteration 61 RMS(Cart)=  0.00013723 RMS(Int)=  0.68621470
 Iteration 62 RMS(Cart)=  0.00012320 RMS(Int)=  0.68619000
 Iteration 63 RMS(Cart)=  0.00011230 RMS(Int)=  0.68616665
 Iteration 64 RMS(Cart)=  0.00010462 RMS(Int)=  0.68614428
 Iteration 65 RMS(Cart)=  0.00009857 RMS(Int)=  0.68612274
 Iteration 66 RMS(Cart)=  0.00009373 RMS(Int)=  0.68610193
 Iteration 67 RMS(Cart)=  0.00008980 RMS(Int)=  0.68608176
 Iteration 68 RMS(Cart)=  0.00008651 RMS(Int)=  0.68606219
 Iteration 69 RMS(Cart)=  0.00008367 RMS(Int)=  0.68604316
 Iteration 70 RMS(Cart)=  0.00008114 RMS(Int)=  0.68602464
 Iteration 71 RMS(Cart)=  0.00007885 RMS(Int)=  0.68600659
 Iteration 72 RMS(Cart)=  0.00007673 RMS(Int)=  0.68598899
 Iteration 73 RMS(Cart)=  0.00007475 RMS(Int)=  0.68597181
 Iteration 74 RMS(Cart)=  0.00007288 RMS(Int)=  0.68595503
 Iteration 75 RMS(Cart)=  0.00007110 RMS(Int)=  0.68593864
 Iteration 76 RMS(Cart)=  0.00006939 RMS(Int)=  0.68592261
 Iteration 77 RMS(Cart)=  0.00006775 RMS(Int)=  0.68590695
 Iteration 78 RMS(Cart)=  0.00006617 RMS(Int)=  0.68589162
 Iteration 79 RMS(Cart)=  0.00006465 RMS(Int)=  0.68587663
 Iteration 80 RMS(Cart)=  0.00006316 RMS(Int)=  0.68586197
 Iteration 81 RMS(Cart)=  0.00006173 RMS(Int)=  0.68584761
 Iteration 82 RMS(Cart)=  0.00006033 RMS(Int)=  0.68583356
 Iteration 83 RMS(Cart)=  0.00005897 RMS(Int)=  0.68581981
 Iteration 84 RMS(Cart)=  0.00005765 RMS(Int)=  0.68580634
 Iteration 85 RMS(Cart)=  0.00005636 RMS(Int)=  0.68579316
 Iteration 86 RMS(Cart)=  0.00005510 RMS(Int)=  0.68578025
 Iteration 87 RMS(Cart)=  0.00005388 RMS(Int)=  0.68576761
 Iteration 88 RMS(Cart)=  0.00005269 RMS(Int)=  0.68575523
 Iteration 89 RMS(Cart)=  0.00005153 RMS(Int)=  0.68574310
 Iteration 90 RMS(Cart)=  0.00005039 RMS(Int)=  0.68573123
 Iteration 91 RMS(Cart)=  0.00004929 RMS(Int)=  0.68571959
 Iteration 92 RMS(Cart)=  0.00004821 RMS(Int)=  0.68570820
 Iteration 93 RMS(Cart)=  0.00004716 RMS(Int)=  0.68569703
 Iteration 94 RMS(Cart)=  0.00004614 RMS(Int)=  0.68568610
 Iteration 95 RMS(Cart)=  0.00004514 RMS(Int)=  0.68567538
 Iteration 96 RMS(Cart)=  0.00004417 RMS(Int)=  0.68566488
 Iteration 97 RMS(Cart)=  0.00004322 RMS(Int)=  0.68565460
 Iteration 98 RMS(Cart)=  0.00004230 RMS(Int)=  0.68564452
 Iteration 99 RMS(Cart)=  0.00004140 RMS(Int)=  0.68563464
 Iteration100 RMS(Cart)=  0.00004052 RMS(Int)=  0.68562496
 New curvilinear step not converged.
 FormGI is forming the generalized inverse of G from B-inverse, IUseBI=4.
 RedQX1 iteration     1 Try  1 RMS(Cart)=  0.35746554 RMS(Int)=  0.69624292 XScale=  8.68142897
 RedQX1 iteration     1 Try  2 RMS(Cart)=  0.36214646 RMS(Int)=  0.66422979 XScale=  4.29085154
 RedQX1 iteration     1 Try  3 RMS(Cart)=  0.39033572 RMS(Int)=  0.64808021 XScale=  2.79283836
 RedQX1 iteration     1 Try  4 RMS(Cart)=  0.48004681 RMS(Int)=  0.64951487 XScale=  1.99772331
 RedQX1 iteration     1 Try  5 RMS(Cart)=  0.79974034 RMS(Int)=  0.68240125 XScale=  1.41251467
 RedQX1 iteration     1 Try  6 RMS(Cart)=  0.69793183 RMS(Int)=  0.73051494 XScale=  1.15061367
 RedQX1 iteration     2 Try  1 RMS(Cart)=  0.16475401 RMS(Int)=  0.71984067 XScale=  1.12416761
 RedQX1 iteration     2 Try  2 RMS(Cart)=  0.29907186 RMS(Int)=  0.72245811 XScale=  1.09836405
 RedQX1 iteration     2 Try  3 RMS(Cart)=  0.36341456 RMS(Int)=  0.84914142 XScale=  0.93714905
 RedQX1 iteration     3 Try  1 RMS(Cart)=  0.21804874 RMS(Int)=  0.79403149 XScale=  0.97904224
 RedQX1 iteration     4 Try  1 RMS(Cart)=  0.04360975 RMS(Int)=  0.78091409 XScale=  1.00754627
 RedQX1 iteration     4 Try  2 RMS(Cart)=  0.06899867 RMS(Int)=  0.75401398 XScale=  1.03868981
 RedQX1 iteration     4 Try  3 RMS(Cart)=  0.04971662 RMS(Int)=  0.77545182 XScale=  1.00395428
 RedQX1 iteration     4 Try  4 RMS(Cart)=  0.05552768 RMS(Int)=  0.78724012 XScale=  0.99089149
 RedQX1 iteration     5 Try  1 RMS(Cart)=  0.04886436 RMS(Int)=  0.78777332 XScale=  0.99050627
 RedQX1 iteration     6 Try  1 RMS(Cart)=  0.00977287 RMS(Int)=  0.79545215 XScale=  0.99737227
 RedQX1 iteration     7 Try  1 RMS(Cart)=  0.00195457 RMS(Int)=  0.77632495 XScale=  1.00260702
 RedQX1 iteration     7 Try  2 RMS(Cart)=  0.00196292 RMS(Int)=  0.77719677 XScale=  1.00126556
 RedQX1 iteration     7 Try  3 RMS(Cart)=  0.00197128 RMS(Int)=  0.77806680 XScale=  0.99993053
 RedQX1 iteration     7 Try  4 RMS(Cart)=  0.00197965 RMS(Int)=  0.77893459 XScale=  0.99860252
 RedQX1 iteration     8 Try  1 RMS(Cart)=  0.00197015 RMS(Int)=  0.77893044 XScale=  0.99860886
 RedQX1 iteration     9 Try  1 RMS(Cart)=  0.00039403 RMS(Int)=  0.77824021 XScale=  0.99966492
 RedQX1 iteration     9 Try  2 RMS(Cart)=  0.00039436 RMS(Int)=  0.77841354 XScale=  0.99939958
 RedQX1 iteration     9 Try  3 RMS(Cart)=  0.00039469 RMS(Int)=  0.77858676 XScale=  0.99913454
 RedQX1 iteration     9 Try  4 RMS(Cart)=  0.00039503 RMS(Int)=  0.77875989 XScale=  0.99886979
 RedQX1 iteration    10 Try  1 RMS(Cart)=  0.00039465 RMS(Int)=  0.77875972 XScale=  0.99887004
 RedQX1 iteration    11 Try  1 RMS(Cart)=  0.00007893 RMS(Int)=  0.77862138 XScale=  0.99908159
 RedQX1 iteration    11 Try  2 RMS(Cart)=  0.00007894 RMS(Int)=  0.77865600 XScale=  0.99902865
 RedQX1 iteration    11 Try  3 RMS(Cart)=  0.00007896 RMS(Int)=  0.77869061 XScale=  0.99897572
 RedQX1 iteration    12 Try  1 RMS(Cart)=  0.00007895 RMS(Int)=  0.77869060 XScale=  0.99897572
 RedQX1 iteration    13 Try  1 RMS(Cart)=  0.00001579 RMS(Int)=  0.77866292 XScale=  0.99901806
 RedQX1 iteration    13 Try  2 RMS(Cart)=  0.00001579 RMS(Int)=  0.77866984 XScale=  0.99900747
 RedQX1 iteration    13 Try  3 RMS(Cart)=  0.00001579 RMS(Int)=  0.77867676 XScale=  0.99899689
 RedQX1 iteration    14 Try  1 RMS(Cart)=  0.00001579 RMS(Int)=  0.77867676 XScale=  0.99899689
 RedQX1 iteration    15 Try  1 RMS(Cart)=  0.00000316 RMS(Int)=  0.77867123 XScale=  0.99900536
 RedQX1 iteration    15 Try  2 RMS(Cart)=  0.00000316 RMS(Int)=  0.77867261 XScale=  0.99900324
 RedQX1 iteration    15 Try  3 RMS(Cart)=  0.00000316 RMS(Int)=  0.77867400 XScale=  0.99900112
 RedQX1 iteration    15 Try  4 RMS(Cart)=  0.00000316 RMS(Int)=  0.77867538 XScale=  0.99899901
 RedQX1 iteration    16 Try  1 RMS(Cart)=  0.00000316 RMS(Int)=  0.77867538 XScale=  0.99899901
 RedQX1 iteration    17 Try  1 RMS(Cart)=  0.00000063 RMS(Int)=  0.77867427 XScale=  0.99900070
 RedQX1 iteration    17 Try  2 RMS(Cart)=  0.00000063 RMS(Int)=  0.77867455 XScale=  0.99900028
 RedQX1 iteration    17 Try  3 RMS(Cart)=  0.00000063 RMS(Int)=  0.77867483 XScale=  0.99899985
 RedQX1 iteration    18 Try  1 RMS(Cart)=  0.00000063 RMS(Int)=  0.77867483 XScale=  0.99899985
 RedQX1 iteration    19 Try  1 RMS(Cart)=  0.00000013 RMS(Int)=  0.77867460 XScale=  0.99900019
 RedQX1 iteration    19 Try  2 RMS(Cart)=  0.00000013 RMS(Int)=  0.77867466 XScale=  0.99900011
 RedQX1 iteration    19 Try  3 RMS(Cart)=  0.00000013 RMS(Int)=  0.77867472 XScale=  0.99900002
 RedQX1 iteration    19 Try  4 RMS(Cart)=  0.00000013 RMS(Int)=  0.77867477 XScale=  0.99899994
 RedQX1 iteration    20 Try  1 RMS(Cart)=  0.00000013 RMS(Int)=  0.77867477 XScale=  0.99899994
 Old curvilinear step not converged, using linear step:
 SCX= 8.27D+00 DXMaxT= 4.94-324 SCLim= 0.00D+00 Fact= 0.00D+00
 RedCar/ORedCr failed for GTrans.
 Error termination via Lnk1e in /home1/apps/gaussian/16rA.03/g16/l101.exe at Sat Oct 22 00:25:14 2022.
 Job cpu time:       0 days  0 hours  0 minutes 13.3 seconds.
 Elapsed time:       0 days  0 hours  0 minutes  1.5 seconds.
 File lengths (MBytes):  RWF=      6 Int=      0 D2E=      0 Chk=      1 Scr=      1
