 Entering Gaussian System, Link 0=g16
 Initial command:
 /home1/apps/gaussian/16rA.03/g16/l1.exe "/tmp/Gau-189295.inp" -scrdir="/tmp/"
 Entering Link 1 = /home1/apps/gaussian/16rA.03/g16/l1.exe PID=    189297.
  
 Copyright (c) 1988,1990,1992,1993,1995,1998,2003,2009,2016,
            Gaussian, Inc.  All Rights Reserved.
  
 This is part of the Gaussian(R) 16 program.  It is based on
 the Gaussian(R) 09 system (copyright 2009, Gaussian, Inc.),
 the Gaussian(R) 03 system (copyright 2003, Gaussian, Inc.),
 the Gaussian(R) 98 system (copyright 1998, Gaussian, Inc.),
 the Gaussian(R) 94 system (copyright 1995, Gaussian, Inc.),
 the Gaussian 92(TM) system (copyright 1992, Gaussian, Inc.),
 the Gaussian 90(TM) system (copyright 1990, Gaussian, Inc.),
 the Gaussian 88(TM) system (copyright 1988, Gaussian, Inc.),
 the Gaussian 86(TM) system (copyright 1986, Carnegie Mellon
 University), and the Gaussian 82(TM) system (copyright 1983,
 Carnegie Mellon University). Gaussian is a federally registered
 trademark of Gaussian, Inc.
  
 This software contains proprietary and confidential information,
 including trade secrets, belonging to Gaussian, Inc.
  
 This software is provided under written license and may be
 used, copied, transmitted, or stored only in accord with that
 written license.
  
 The following legend is applicable only to US Government
 contracts under FAR:
  
                    RESTRICTED RIGHTS LEGEND
  
 Use, reproduction and disclosure by the US Government is
 subject to restrictions as set forth in subparagraphs (a)
 and (c) of the Commercial Computer Software - Restricted
 Rights clause in FAR 52.227-19.
  
 Gaussian, Inc.
 340 Quinnipiac St., Bldg. 40, Wallingford CT 06492
  
  
 ---------------------------------------------------------------
 Warning -- This program may not be used in any manner that
 competes with the business of Gaussian, Inc. or will provide
 assistance to any competitor of Gaussian, Inc.  The licensee
 of this program is prohibited from giving any competitor of
 Gaussian, Inc. access to this program.  By using this program,
 the user acknowledges that Gaussian, Inc. is engaged in the
 business of creating and licensing software in the field of
 computational chemistry and represents and warrants to the
 licensee that it is not a competitor of Gaussian, Inc. and that
 it will not use this program in any manner prohibited above.
 ---------------------------------------------------------------
  

 Cite this work as:
 Gaussian 16, Revision A.03,
 M. J. Frisch, G. W. Trucks, H. B. Schlegel, G. E. Scuseria, 
 M. A. Robb, J. R. Cheeseman, G. Scalmani, V. Barone, 
 G. A. Petersson, H. Nakatsuji, X. Li, M. Caricato, A. V. Marenich, 
 J. Bloino, B. G. Janesko, R. Gomperts, B. Mennucci, H. P. Hratchian, 
 J. V. Ortiz, A. F. Izmaylov, J. L. Sonnenberg, D. Williams-Young, 
 F. Ding, F. Lipparini, F. Egidi, J. Goings, B. Peng, A. Petrone, 
 T. Henderson, D. Ranasinghe, V. G. Zakrzewski, J. Gao, N. Rega, 
 G. Zheng, W. Liang, M. Hada, M. Ehara, K. Toyota, R. Fukuda, 
 J. Hasegawa, M. Ishida, T. Nakajima, Y. Honda, O. Kitao, H. Nakai, 
 T. Vreven, K. Throssell, J. A. Montgomery, Jr., J. E. Peralta, 
 F. Ogliaro, M. J. Bearpark, J. J. Heyd, E. N. Brothers, K. N. Kudin, 
 V. N. Staroverov, T. A. Keith, R. Kobayashi, J. Normand, 
 K. Raghavachari, A. P. Rendell, J. C. Burant, S. S. Iyengar, 
 J. Tomasi, M. Cossi, J. M. Millam, M. Klene, C. Adamo, R. Cammi, 
 J. W. Ochterski, R. L. Martin, K. Morokuma, O. Farkas, 
 J. B. Foresman, and D. J. Fox, Gaussian, Inc., Wallingford CT, 2016.
 
 ******************************************
 Gaussian 16:  ES64L-G16RevA.03 25-Dec-2016
                17-Feb-2023 
 ******************************************
 %Chk=checkpoint.chk
 %NProcShared=12
 Will use up to   12 processors via shared memory.
 -----------------------------------------------------
 #wB97XD Gen Opt=(QST3) SCRF=(Solvent=TetraHydroFuran)
 -----------------------------------------------------
 1/5=1,18=20,26=3,27=203,38=1/1,3;
 2/9=110,12=2,17=6,18=5,40=1/2;
 3/5=7,11=2,25=1,30=1,70=2201,71=1,72=20,74=-58/1,2,3;
 4//1;
 5/5=2,38=5,53=20/2;
 6/7=2,8=2,9=2,10=2,28=1/1;
 7//1,2,3,16;
 1/5=1,18=20,26=3,27=203/3(2);
 2/9=110/2;
 99//99;
 2/9=110/2;
 3/5=7,6=1,11=2,25=1,30=1,70=2205,71=1,72=20,74=-58,82=7/1,2,3;
 4/5=5,16=3,69=1/1;
 5/5=2,38=5,53=20/2;
 7//1,2,3,16;
 1/5=1,18=20,26=3,27=203/3(-5);
 2/9=110/2;
 6/7=2,8=2,9=2,10=2,19=2,28=1/1;
 99/9=1/99;
 ------------------------------------
 Anthracene Transition State Reactant
 ------------------------------------
 Symbolic Z-matrix:
 Charge =  0 Multiplicity = 1
 Mn                   -1.0194   -0.13282  -1.30041 
 C                    -1.95084   1.09527  -2.29845 
 O                    -2.50101   1.87539  -2.92239 
 C                    -1.94096  -1.55093  -2.01671 
 O                    -2.47772  -2.45176  -2.46467 
 C                     0.20025  -0.27236  -2.6431 
 N                     0.04927  -1.53221  -0.03083 
 C                     0.07866  -3.04556   1.8282 
 C                     1.46702  -3.1228    1.77993 
 C                     1.37634  -1.67638  -0.11513 
 H                    -0.49205  -3.5931    2.57846 
 H                     2.01871  -3.71611   2.51212 
 N                    -2.37065   0.02942   0.19031 
 C                    -3.16697   0.13023   1.0198 
 C                    -4.10539   0.2658    2.09209 
 C                    -3.6202    0.43566   3.39952 
 C                    -4.52704   0.57079   4.44399 
 C                    -5.48203   0.23058   1.82486 
 H                    -2.54534   0.46071   3.58681 
 H                    -5.82775   0.09615   0.79488 
 N                     0.05018   1.50245  -0.35369 
 C                     0.08073   3.37421   1.14383 
 C                     1.47006   3.42805   1.09346 
 H                    -0.49002   4.07266   1.75603 
 C                    -0.58809  -2.23239   0.92237 
 H                    -1.67251  -2.14107   0.96102 
 C                    -0.58735   2.39419   0.42298 
 H                    -1.67305   2.32336   0.46813 
 H                    -4.16287   0.70328   5.46409 
 O                     0.94147  -0.36186  -3.51126 
 C                     3.71034   0.05692   0.59661 
 C                     6.44285   0.00195   0.07986 
 C                     2.14993  -2.41932   0.78562 
 C                     3.63318  -2.42875   0.67238 
 C                     4.33237  -3.60918   0.65808 
 C                     5.74721  -3.62943   0.48325 
 C                     6.44286  -2.47015   0.28898 
 C                     5.76733  -1.20725   0.29051 
 C                     4.35206  -1.18133   0.52939 
 H                     3.79554  -4.55679   0.74485 
 H                     6.26618  -4.58974   0.47691 
 H                     7.52231  -2.48926   0.12265 
 C                     4.35394   1.25516   0.28141 
 C                     5.76945   1.23001   0.04342 
 C                     6.44775   2.46555  -0.21061 
 C                     5.75436   3.64152  -0.25402 
 C                     4.33929   3.65908  -0.08147 
 C                     3.63726   2.50702   0.16895 
 H                     7.52743   2.44868  -0.37582 
 H                     6.27529   4.58008  -0.45221 
 H                     3.80437   4.6056   -0.18931 
 C                     2.15352   2.52607   0.2752 
 H                     2.02229   4.15802   1.68899 
 C                     1.37923   1.61496  -0.45427 
 H                     1.87683   0.94259  -1.1522 
 H                     1.87309  -1.17143  -0.94303 
 C                    -5.89955   0.53687   4.18594 
 C                    -6.37363   0.36773   2.88435 
 H                    -7.44706   0.34214   2.68994 
 H                    -6.60706   0.64379   5.01079 
 Br                   -5.87537  -0.28615  -1.89241 
 H                     7.52454  -0.01473  -0.07653 
 H                     2.66679   0.08836   0.89635 
 
 Add virtual bond connecting atoms Br61       and H20        Dist= 5.13D+00.
 -----------------------------------
 Anthracene Transition State Product
 -----------------------------------
 Symbolic Z-matrix:
 Charge =  0 Multiplicity = 1
 Mn                   -1.44286   0.16026  -2.01412 
 C                    -2.20443   1.54882  -2.90891 
 O                    -2.68366   2.42731  -3.46349 
 C                    -2.21304  -1.07612  -3.10367 
 O                    -2.69804  -1.85971  -3.78172 
 C                    -0.01408   0.23546  -3.09485 
 N                    -0.60049  -1.44099  -0.81185 
 C                    -0.82342  -3.27125   0.71581 
 C                     0.55737  -3.36677   0.85296 
 C                     0.7252   -1.5913   -0.72767 
 H                    -1.48955  -3.94449   1.25661 
 H                     1.00241  -4.09964   1.52935 
 N                     0.0775   -0.17244   2.4041 
 C                    -1.05369  -0.19765   2.64732 
 C                    -2.45976  -0.23136   2.94445 
 C                    -3.12645  -1.4621    3.01383 
 C                    -4.49389  -1.48788   3.26678 
 C                    -3.15853   0.96659   3.1448 
 H                    -2.5722   -2.38909   2.86463 
 H                    -2.62937   1.91849   3.09601 
 N                    -0.59083   1.56154  -0.58857 
 C                    -0.80429   3.1413    1.19825 
 C                     0.5769    3.20654   1.34817 
 H                    -1.46646   3.7285    1.83564 
 C                    -1.3638   -2.28301  -0.09733 
 H                    -2.44255  -2.14076  -0.17604 
 C                    -1.34964   2.291     0.24463 
 H                    -2.42913   2.16919   0.14486 
 H                    -5.01736  -2.44419   3.31559 
 O                     0.86165   0.2873   -3.83871 
 C                     2.91235  -0.04746   0.58557 
 C                     5.69235  -0.04273   0.41158 
 C                     1.36924  -2.49754   0.12252 
 C                     2.85402  -2.5063    0.21569 
 C                     3.56205  -3.67493   0.08887 
 C                     4.98786  -3.68132   0.09599 
 C                     5.69088  -2.51399   0.19056 
 C                     5.00769  -1.26191   0.32192 
 C                     3.57322  -1.26107   0.38259 
 H                     3.02896  -4.61681  -0.06081 
 H                     5.51371  -4.63251  -0.00729 
 H                     6.783    -2.51728   0.16154 
 C                     3.58071   1.17889   0.56648 
 C                     5.01522   1.18024   0.5065 
 C                     5.70587   2.43375   0.56536 
 C                     5.00976   3.60611   0.64834 
 C                     3.58394   3.60941   0.64 
 C                     2.86897   2.43926   0.58848 
 H                     6.79801   2.43509   0.53708 
 H                     5.54131   4.55882   0.69009 
 H                     3.05653   4.56629   0.63458 
 C                     1.38429   2.45343   0.49431 
 H                     1.02578   3.82526   2.12808 
 C                     0.73572   1.68987  -0.48314 
 H                     1.34033   1.15471  -1.214 
 H                     1.33286  -0.9558   -1.37019 
 C                    -5.19354  -0.29487   3.45284 
 C                    -4.52569   0.92909   3.39758 
 H                    -5.07398   1.86057   3.54798 
 H                    -6.26798  -0.31941   3.64516 
 Br                   -3.72263   0.07153  -0.71897 
 H                     1.84487  -0.05936   0.78995 
 H                     6.78538  -0.04496   0.39399 
 
 Add virtual bond connecting atoms N7         and Mn1        Dist= 4.11D+00.
 Add virtual bond connecting atoms N21        and Mn1        Dist= 4.11D+00.
 Add virtual bond connecting atoms H11        and H19        Dist= 4.70D+00.
 Add virtual bond connecting atoms H24        and H20        Dist= 4.71D+00.
 Add virtual bond connecting atoms H62        and N13        Dist= 4.53D+00.
 -----------------------------------------
 Anthracene Transition State Initial Guess
 -----------------------------------------
 Symbolic Z-matrix:
 Charge =  0 Multiplicity = 1
 Mn                   -0.9732   -0.17051  -2.24398 
 C                    -1.63822   1.02339  -3.45694 
 O                    -1.95343   1.78064  -4.25551 
 C                    -1.71978  -1.58245  -3.14996 
 O                    -2.06313  -2.49078  -3.75591 
 C                     0.46672  -0.33692  -3.26482 
 N                    -0.24473  -1.59781  -0.93725 
 C                    -0.68734  -3.34155   0.64703 
 C                     0.64005  -3.32571   1.07242 
 C                     1.04537  -1.66984  -0.59518 
 H                    -1.41899  -4.01703   1.09941 
 H                     0.9682   -3.97586   1.88792 
 N                    -1.95702   0.08933   0.23634 
 C                    -2.31691   0.21224   1.33069 
 C                    -2.80662   0.32893   2.6824 
 C                    -1.95164   0.7096    3.72128 
 C                    -2.45201   0.82595   5.01995 
 C                    -4.15371   0.05855   2.94222 
 H                    -0.90676   0.92002   3.50597 
 H                    -4.80239  -0.23808   2.11658 
 N                    -0.19267   1.44976  -1.24621 
 C                    -0.62456   3.42147   0.04619 
 C                     0.70896   3.48344   0.44529 
 H                    -1.3547    4.14933   0.40332 
 C                    -1.09299  -2.45662  -0.34109 
 H                    -2.14031  -2.41104  -0.65255 
 C                    -1.03821   2.38618  -0.78096 
 H                    -2.08947   2.27455  -1.06129 
 H                    -1.79369   1.12893   5.83405 
 O                     1.37123  -0.4786   -3.96482 
 C                     3.03863   0.08131   0.76227 
 C                     5.80357   0.08036   1.0933 
 C                     1.54842  -2.47103   0.43911 
 C                     2.99426  -2.4176    0.80412 
 C                     3.70077  -3.57808   0.99852 
 C                     5.10385  -3.56519   1.26941 
 C                     5.79709  -2.38922   1.29792 
 C                     5.11779  -1.14229   1.09325 
 C                     3.6935   -1.1475    0.89439 
 H                     3.19105  -4.54181   0.90583 
 H                     5.62289  -4.51562   1.41935 
 H                     6.87892  -2.37747   1.4668 
 C                     3.72659   1.29443   0.6462 
 C                     5.15005   1.29526   0.84848 
 C                     5.85881   2.54295   0.80719 
 C                     5.19405   3.70587   0.54735 
 C                     3.7912    3.69884   0.27519 
 C                     3.0579    2.53824   0.3066 
 H                     6.93964   2.54107   0.98134 
 H                     5.73679   4.65508   0.51385 
 H                     3.304     4.63665  -0.00537 
 C                     1.61151   2.54406  -0.05853 
 H                     1.04508   4.24942   1.15079 
 C                     1.10089   1.58731  -0.94674 
 H                     1.78972   0.89502  -1.42799 
 H                     1.73821  -1.05558  -1.17122 
 C                    -3.79157   0.56077   5.28128 
 C                    -4.64007   0.17525   4.24556 
 H                    -5.68681  -0.03395   4.4563 
 H                    -4.17963   0.6542    6.30348 
 Br                   -4.00346  -0.05229  -2.09225 
 H                     6.88434   0.08428   1.27272 
 H                     1.95035   0.09516   0.73572 
 

 GradGradGradGradGradGradGradGradGradGradGradGradGradGradGradGradGradGrad
 Berny optimization.
 Initialization pass.
                           ----------------------------
                           !    Initial Parameters    !
                           ! (Angstroms and Degrees)  !
 --------------------------                            --------------------------
 ! Name  Definition         TS        Reactant Product Derivative Info.         !
 --------------------------------------------------------------------------------
 ! R1    R(1,2)             1.8273    1.8363    1.819  estimate D2E/DX2         !
 ! R2    R(1,4)             1.8362    1.8367    1.819  estimate D2E/DX2         !
 ! R3    R(1,6)             1.7729    1.8193    1.7931 estimate D2E/DX2         !
 ! R4    R(1,7)             2.0677    2.1708    2.1723 estimate D2E/DX2         !
 ! R5    R(1,13)            2.6809    2.0185    4.6843 estimate D2E/DX2         !
 ! R6    R(1,21)            2.0567    2.1713    2.173  estimate D2E/DX2         !
 ! R7    R(1,61)            3.0364    4.8943    2.6235 estimate D2E/DX2         !
 ! R8    R(2,3)             1.1448    1.1404    1.1441 estimate D2E/DX2         !
 ! R9    R(4,5)             1.1446    1.1403    1.1441 estimate D2E/DX2         !
 ! R10   R(6,30)            1.1525    1.145     1.1502 estimate D2E/DX2         !
 ! R11   R(7,10)            1.3366    1.3375    1.3368 estimate D2E/DX2         !
 ! R12   R(7,25)            1.3463    1.3435    1.3425 estimate D2E/DX2         !
 ! R13   R(8,9)             1.394     1.3913    1.3909 estimate D2E/DX2         !
 ! R14   R(8,11)            1.0937    1.0901    1.0906 estimate D2E/DX2         !
 ! R15   R(8,25)            1.3871    1.3879    1.3892 estimate D2E/DX2         !
 ! R16   R(9,12)            1.0934    1.092     1.0921 estimate D2E/DX2         !
 ! R17   R(9,33)            1.3988    1.3964    1.3958 estimate D2E/DX2         !
 ! R18   R(10,33)           1.4017    1.4006    1.3996 estimate D2E/DX2         !
 ! R19   R(10,56)           1.0905    1.0896    1.089  estimate D2E/DX2         !
 ! R20   R(11,19)           5.5162    4.6547    2.4854 estimate D2E/DX2         !
 ! R21   R(13,14)           1.1585    1.1543    1.1573 estimate D2E/DX2         !
 ! R22   R(13,62)           8.9019    9.8989    2.3962 estimate D2E/DX2         !
 ! R23   R(14,15)           1.4424    1.4314    1.4375 estimate D2E/DX2         !
 ! R24   R(15,16)           1.3983    1.4049    1.4014 estimate D2E/DX2         !
 ! R25   R(15,18)           1.3983    1.4028    1.4013 estimate D2E/DX2         !
 ! R26   R(16,17)           1.3966    1.3898    1.3909 estimate D2E/DX2         !
 ! R27   R(16,19)           1.0874    1.0913    1.0903 estimate D2E/DX2         !
 ! R28   R(17,29)           1.0899    1.0912    1.0913 estimate D2E/DX2         !
 ! R29   R(17,57)           1.3903    1.397     1.3955 estimate D2E/DX2         !
 ! R30   R(18,20)           1.0911    1.0947    1.0902 estimate D2E/DX2         !
 ! R31   R(18,58)           1.396     1.3915    1.3908 estimate D2E/DX2         !
 ! R32   R(20,24)           5.8371    6.7252    2.4934 estimate D2E/DX2         !
 ! R33   R(20,61)           4.288     2.7148    4.3773 estimate D2E/DX2         !
 ! R34   R(21,27)           1.3447    1.3435    1.3424 estimate D2E/DX2         !
 ! R35   R(21,54)           1.3349    1.3376    1.3369 estimate D2E/DX2         !
 ! R36   R(22,23)           1.3933    1.3913    1.3908 estimate D2E/DX2         !
 ! R37   R(22,24)           1.0911    1.0901    1.0907 estimate D2E/DX2         !
 ! R38   R(22,27)           1.3882    1.3879    1.3892 estimate D2E/DX2         !
 ! R39   R(23,52)           1.3967    1.3965    1.3958 estimate D2E/DX2         !
 ! R40   R(23,53)           1.0943    1.092     1.092  estimate D2E/DX2         !
 ! R41   R(25,26)           1.0936    1.0889    1.0909 estimate D2E/DX2         !
 ! R42   R(27,28)           1.0937    1.0889    1.0909 estimate D2E/DX2         !
 ! R43   R(31,39)           1.3987    1.3963    1.3967 estimate D2E/DX2         !
 ! R44   R(31,43)           1.3994    1.3962    1.3968 estimate D2E/DX2         !
 ! R45   R(31,62)           3.8794    3.8738    1.0869 estimate D2E/DX2         !
 ! R46   R(31,63)           1.0887    1.0862    3.8778 estimate D2E/DX2         !
 ! R47   R(32,38)           1.4019    1.401     1.4011 estimate D2E/DX2         !
 ! R48   R(32,44)           1.4011    1.401     1.4011 estimate D2E/DX2         !
 ! R49   R(32,62)           1.0956    1.0931    3.8661 estimate D2E/DX2         !
 ! R50   R(32,63)           3.8698    3.8643    1.0932 estimate D2E/DX2         !
 ! R51   R(33,34)           1.4922    1.4876    1.4877 estimate D2E/DX2         !
 ! R52   R(34,35)           1.3725    1.372     1.3723 estimate D2E/DX2         !
 ! R53   R(34,39)           1.4527    1.4468    1.4477 estimate D2E/DX2         !
 ! R54   R(35,36)           1.429     1.4257    1.4258 estimate D2E/DX2         !
 ! R55   R(35,40)           1.0942    1.0926    1.0926 estimate D2E/DX2         !
 ! R56   R(36,37)           1.3654    1.3659    1.366  estimate D2E/DX2         !
 ! R57   R(36,41)           1.0932    1.0916    1.0918 estimate D2E/DX2         !
 ! R58   R(37,38)           1.4346    1.4322    1.4324 estimate D2E/DX2         !
 ! R59   R(37,42)           1.095     1.0924    1.0925 estimate D2E/DX2         !
 ! R60   R(38,39)           1.4381    1.4355    1.4358 estimate D2E/DX2         !
 ! R61   R(43,44)           1.4378    1.4356    1.4358 estimate D2E/DX2         !
 ! R62   R(43,48)           1.4524    1.4469    1.4476 estimate D2E/DX2         !
 ! R63   R(44,45)           1.4355    1.4322    1.4324 estimate D2E/DX2         !
 ! R64   R(45,46)           1.3645    1.3659    1.366  estimate D2E/DX2         !
 ! R65   R(45,49)           1.0948    1.0924    1.0925 estimate D2E/DX2         !
 ! R66   R(46,47)           1.429     1.4257    1.4258 estimate D2E/DX2         !
 ! R67   R(46,50)           1.0939    1.0916    1.0918 estimate D2E/DX2         !
 ! R68   R(47,48)           1.3732    1.3722    1.3723 estimate D2E/DX2         !
 ! R69   R(47,51)           1.0934    1.0926    1.0926 estimate D2E/DX2         !
 ! R70   R(48,52)           1.4918    1.4877    1.4877 estimate D2E/DX2         !
 ! R71   R(52,54)           1.4018    1.4006    1.3997 estimate D2E/DX2         !
 ! R72   R(54,55)           1.0887    1.0894    1.0891 estimate D2E/DX2         !
 ! R73   R(57,58)           1.3933    1.3955    1.3954 estimate D2E/DX2         !
 ! R74   R(57,60)           1.0974    1.092     1.0918 estimate D2E/DX2         !
 ! R75   R(58,59)           1.088     1.0912    1.0913 estimate D2E/DX2         !
 ! A1    A(2,1,4)          91.5425   92.8602   92.6906 estimate D2E/DX2         !
 ! A2    A(2,1,6)          88.5496   89.4398   90.2928 estimate D2E/DX2         !
 ! A3    L(2,1,7,4,-1)    177.1996  181.5632  182.3854 estimate D2E/DX2         !
 ! A4    L(2,1,7,4,-2)    179.3668  182.4131  183.4865 estimate D2E/DX2         !
 ! A5    A(2,1,13)        114.6613   90.4629  130.8496 estimate D2E/DX2         !
 ! A6    A(2,1,21)         86.871    89.035    89.6911 estimate D2E/DX2         !
 ! A7    A(2,1,61)         69.1774   56.7659   84.5395 estimate D2E/DX2         !
 ! A8    A(4,1,6)          88.5072   89.3883   90.279  estimate D2E/DX2         !
 ! A9    A(4,1,7)          85.6571   88.703    89.6949 estimate D2E/DX2         !
 ! A10   A(4,1,13)        112.445    90.8132  130.8505 estimate D2E/DX2         !
 ! A11   L(4,1,21,2,-1)   178.4136  181.8953  182.3816 estimate D2E/DX2         !
 ! A12   L(4,1,21,2,-2)   178.8666  177.8035  176.5025 estimate D2E/DX2         !
 ! A13   A(4,1,61)         69.4412   55.3068   84.5361 estimate D2E/DX2         !
 ! A14   A(6,1,7)          90.7426   92.9897   93.1816 estimate D2E/DX2         !
 ! A15   L(6,1,13,2,-1)   203.211   179.9027  221.1424 estimate D2E/DX2         !
 ! A16   L(6,1,13,2,-2)   204.1018  180.197   245.2912 estimate D2E/DX2         !
 ! A17   A(6,1,21)         92.5822   92.827    93.2059 estimate D2E/DX2         !
 ! A18   L(6,1,61,2,-1)   157.727   146.2057  174.8323 estimate D2E/DX2         !
 ! A19   L(6,1,61,2,-2)   155.756   133.7926  174.5395 estimate D2E/DX2         !
 ! A20   A(7,1,13)         67.1393   87.1023   45.5557 estimate D2E/DX2         !
 ! A21   A(7,1,21)         95.9412   89.3121   87.7196 estimate D2E/DX2         !
 ! A22   A(7,1,61)        110.2978  122.615    92.2245 estimate D2E/DX2         !
 ! A23   A(13,1,21)        67.2994   86.9744   45.554  estimate D2E/DX2         !
 ! A24   A(21,1,61)       108.8946  124.4079   92.2164 estimate D2E/DX2         !
 ! A25   L(1,2,3,18,-1)   184.6246  181.2299  179.5621 estimate D2E/DX2         !
 ! A26   L(1,2,3,22,-1)   180.1234  179.0518  179.5279 estimate D2E/DX2         !
 ! A27   L(1,2,3,18,-2)   176.3717  178.8291  179.7608 estimate D2E/DX2         !
 ! A28   L(1,2,3,22,-2)   174.3541  178.5473  180.1171 estimate D2E/DX2         !
 ! A29   L(1,4,5,8,-1)    179.7727  178.9781  179.5473 estimate D2E/DX2         !
 ! A30   L(1,4,5,8,-2)    186.7595  181.8662  179.8672 estimate D2E/DX2         !
 ! A31   L(1,6,30,10,-1)  181.2213  181.4747  182.6714 estimate D2E/DX2         !
 ! A32   L(1,6,30,10,-2)  177.2044  178.99    178.0594 estimate D2E/DX2         !
 ! A33   A(1,7,10)        122.6147  121.4044  120.1501 estimate D2E/DX2         !
 ! A34   A(1,7,25)        119.8808  121.1552  122.4403 estimate D2E/DX2         !
 ! A35   A(10,7,25)       117.4154  117.3369  117.3751 estimate D2E/DX2         !
 ! A36   A(9,8,11)        121.1847  121.2244  121.0019 estimate D2E/DX2         !
 ! A37   A(9,8,25)        119.2493  119.2911  119.5213 estimate D2E/DX2         !
 ! A38   A(11,8,25)       119.5395  119.4687  119.4588 estimate D2E/DX2         !
 ! A39   A(8,9,12)        120.441   120.7321  120.7784 estimate D2E/DX2         !
 ! A40   A(8,9,33)        119.1534  118.9955  118.8861 estimate D2E/DX2         !
 ! A41   A(12,9,33)       120.4052  120.2701  120.331  estimate D2E/DX2         !
 ! A42   A(7,10,33)       124.475   124.3771  124.5675 estimate D2E/DX2         !
 ! A43   A(7,10,56)       116.5956  116.7619  116.7806 estimate D2E/DX2         !
 ! A44   A(33,10,56)      118.9294  118.8603  118.6518 estimate D2E/DX2         !
 ! A45   A(8,11,19)        64.2516   86.7094  101.5699 estimate D2E/DX2         !
 ! A46   L(1,13,14,8,-1)  179.2479  181.4217  143.4264 estimate D2E/DX2         !
 ! A47   L(1,13,14,8,-2)  176.609   180.9146  272.8095 estimate D2E/DX2         !
 ! A48   A(14,13,62)      101.4562  135.1856  149.7131 estimate D2E/DX2         !
 ! A49   L(13,14,15,11,-1)  178.8859  178.6485  179.8378 estimate D2E/DX2       !
 ! A50   L(13,14,15,1,-1)  181.1314  179.3423  179.8053 estimate D2E/DX2        !
 ! A51   L(13,14,15,11,-2)  181.9828  177.655  180.1544 estimate D2E/DX2        !
 ! A52   L(13,14,15,1,-2)  246.5662  323.0409  179.8888 estimate D2E/DX2        !
 ! A53   A(14,15,16)      120.7098  118.8297  119.745  estimate D2E/DX2         !
 ! A54   A(14,15,18)      119.0483  119.8879  119.8197 estimate D2E/DX2         !
 ! A55   A(16,15,18)      120.2417  121.2822  120.4296 estimate D2E/DX2         !
 ! A56   A(15,16,17)      119.6362  119.0657  119.537  estimate D2E/DX2         !
 ! A57   A(15,16,19)      119.5456  120.1746  119.8713 estimate D2E/DX2         !
 ! A58   A(17,16,19)      120.8159  120.7597  120.591  estimate D2E/DX2         !
 ! A59   A(16,17,29)      120.0873  119.7748  119.7337 estimate D2E/DX2         !
 ! A60   A(16,17,57)      120.2709  119.9927  120.0872 estimate D2E/DX2         !
 ! A61   A(29,17,57)      119.6415  120.2326  120.1787 estimate D2E/DX2         !
 ! A62   A(15,18,20)      118.9944  119.4873  119.8693 estimate D2E/DX2         !
 ! A63   A(15,18,58)      119.5339  118.7694  119.546  estimate D2E/DX2         !
 ! A64   A(20,18,58)      121.4716  121.7433  120.5838 estimate D2E/DX2         !
 ! A65   A(11,19,16)       79.861   112.1661  147.3575 estimate D2E/DX2         !
 ! A66   A(18,20,24)       70.5245   62.7598  151.9875 estimate D2E/DX2         !
 ! A67   A(18,20,61)      128.3302  162.5838   63.2149 estimate D2E/DX2         !
 ! A68   A(1,21,27)       118.5424  121.2128  122.409  estimate D2E/DX2         !
 ! A69   A(1,21,54)       123.9018  121.3339  120.1792 estimate D2E/DX2         !
 ! A70   A(27,21,54)      117.384   117.3326  117.3719 estimate D2E/DX2         !
 ! A71   A(23,22,24)      121.1341  121.2226  120.9754 estimate D2E/DX2         !
 ! A72   A(23,22,27)      119.2762  119.2873  119.5087 estimate D2E/DX2         !
 ! A73   A(24,22,27)      119.5472  119.4755  119.497  estimate D2E/DX2         !
 ! A74   A(22,23,52)      119.0267  119.0084  118.8945 estimate D2E/DX2         !
 ! A75   A(22,23,53)      120.6487  120.7383  120.7806 estimate D2E/DX2         !
 ! A76   A(52,23,53)      120.3218  120.2517  120.3201 estimate D2E/DX2         !
 ! A77   A(20,24,22)       89.4216   87.5038  100.821  estimate D2E/DX2         !
 ! A78   A(7,25,8)        122.5578  122.7164  122.4501 estimate D2E/DX2         !
 ! A79   A(7,25,26)       116.7895  116.9941  116.2352 estimate D2E/DX2         !
 ! A80   A(8,25,26)       120.633   120.2893  121.3081 estimate D2E/DX2         !
 ! A81   A(21,27,22)      122.5553  122.7187  122.4637 estimate D2E/DX2         !
 ! A82   A(21,27,28)      116.3997  116.996   116.2248 estimate D2E/DX2         !
 ! A83   A(22,27,28)      121.0145  120.2851  121.3045 estimate D2E/DX2         !
 ! A84   A(39,31,43)      122.6322  122.5723  122.3093 estimate D2E/DX2         !
 ! A85   A(39,31,62)       61.5823   61.4914  118.8492 estimate D2E/DX2         !
 ! A86   A(39,31,63)      118.784   118.7182   61.3666 estimate D2E/DX2         !
 ! A87   A(43,31,62)       61.5053   61.4953  118.8238 estimate D2E/DX2         !
 ! A88   A(43,31,63)      118.5791  118.7067   61.3697 estimate D2E/DX2         !
 ! A89   A(38,32,44)      121.8766  121.9166  121.8486 estimate D2E/DX2         !
 ! A90   A(38,32,62)      119.0592  119.0443   61.0678 estimate D2E/DX2         !
 ! A91   A(38,32,63)       61.0681   61.0778  119.0633 estimate D2E/DX2         !
 ! A92   A(44,32,62)      119.0555  119.0318   61.0645 estimate D2E/DX2         !
 ! A93   A(44,32,63)       61.0594   61.068   119.0833 estimate D2E/DX2         !
 ! A94   A(9,33,10)       116.7604  117.0675  116.9662 estimate D2E/DX2         !
 ! A95   A(9,33,34)       122.7078  122.5908  122.9607 estimate D2E/DX2         !
 ! A96   A(10,33,34)      120.5163  120.3387  120.073  estimate D2E/DX2         !
 ! A97   A(33,34,35)      120.2097  120.9546  120.9417 estimate D2E/DX2         !
 ! A98   A(33,34,39)      120.8583  119.8331  119.8661 estimate D2E/DX2         !
 ! A99   A(35,34,39)      118.8612  119.1791  119.1341 estimate D2E/DX2         !
 ! A100  A(34,35,36)      121.6445  121.2786  121.2856 estimate D2E/DX2         !
 ! A101  A(34,35,40)      119.5338  119.6689  119.674  estimate D2E/DX2         !
 ! A102  A(36,35,40)      118.7765  119.0134  118.9947 estimate D2E/DX2         !
 ! A103  A(35,36,37)      120.6784  120.7171  120.7422 estimate D2E/DX2         !
 ! A104  A(35,36,41)      118.9668  119.0123  119.0173 estimate D2E/DX2         !
 ! A105  A(37,36,41)      120.3204  120.2457  120.2125 estimate D2E/DX2         !
 ! A106  A(36,37,38)      120.3442  120.5328  120.5232 estimate D2E/DX2         !
 ! A107  A(36,37,42)      120.9359  120.6705  120.6689 estimate D2E/DX2         !
 ! A108  A(38,37,42)      118.7173  118.7953  118.8069 estimate D2E/DX2         !
 ! A109  A(32,38,37)      121.7636  122.24    122.2362 estimate D2E/DX2         !
 ! A110  A(32,38,39)      119.1865  118.9991  119.0121 estimate D2E/DX2         !
 ! A111  A(37,38,39)      119.0477  118.758   118.7457 estimate D2E/DX2         !
 ! A112  A(31,39,34)      122.4727  122.1059  121.9443 estimate D2E/DX2         !
 ! A113  A(31,39,38)      118.2678  118.4984  118.6455 estimate D2E/DX2         !
 ! A114  A(34,39,38)      119.2405  119.389   119.4053 estimate D2E/DX2         !
 ! A115  A(31,43,44)      118.3947  118.4837  118.6513 estimate D2E/DX2         !
 ! A116  A(31,43,48)      122.3718  122.1247  121.9344 estimate D2E/DX2         !
 ! A117  A(44,43,48)      119.2237  119.3848  119.4097 estimate D2E/DX2         !
 ! A118  A(32,44,43)      119.0705  119.0099  119.0034 estimate D2E/DX2         !
 ! A119  A(32,44,45)      121.8965  122.2187  122.2494 estimate D2E/DX2         !
 ! A120  A(43,44,45)      119.03    118.7686  118.7409 estimate D2E/DX2         !
 ! A121  A(44,45,46)      120.3775  120.528   120.5213 estimate D2E/DX2         !
 ! A122  A(44,45,49)      118.775   118.7904  118.817  estimate D2E/DX2         !
 ! A123  A(46,45,49)      120.8464  120.6802  120.6609 estimate D2E/DX2         !
 ! A124  A(45,46,47)      120.6867  120.7068  120.7457 estimate D2E/DX2         !
 ! A125  A(45,46,50)      120.242   120.2507  120.209  estimate D2E/DX2         !
 ! A126  A(47,46,50)      119.0437  119.0168  119.0169 estimate D2E/DX2         !
 ! A127  A(46,47,48)      121.6025  121.3037  121.2822 estimate D2E/DX2         !
 ! A128  A(46,47,51)      118.82    118.9924  118.9961 estimate D2E/DX2         !
 ! A129  A(48,47,51)      119.5266  119.663   119.6765 estimate D2E/DX2         !
 ! A130  A(43,48,47)      118.8993  119.1567  119.1323 estimate D2E/DX2         !
 ! A131  A(43,48,52)      120.4617  119.9705  119.8668 estimate D2E/DX2         !
 ! A132  A(47,48,52)      120.588   120.8346  120.9443 estimate D2E/DX2         !
 ! A133  A(23,52,48)      122.7425  122.5636  122.9353 estimate D2E/DX2         !
 ! A134  A(23,52,54)      116.885   117.0493  116.97   estimate D2E/DX2         !
 ! A135  A(48,52,54)      120.3716  120.3865  120.0947 estimate D2E/DX2         !
 ! A136  A(21,54,52)      124.4348  124.391   124.5567 estimate D2E/DX2         !
 ! A137  A(21,54,55)      116.642   116.7506  116.7927 estimate D2E/DX2         !
 ! A138  A(52,54,55)      118.921   118.8579  118.6503 estimate D2E/DX2         !
 ! A139  A(17,57,58)      119.9866  120.597   120.3067 estimate D2E/DX2         !
 ! A140  A(17,57,60)      119.9709  119.6479  119.8457 estimate D2E/DX2         !
 ! A141  A(58,57,60)      120.0424  119.7552  119.8473 estimate D2E/DX2         !
 ! A142  A(18,58,57)      120.3295  120.2931  120.0864 estimate D2E/DX2         !
 ! A143  A(18,58,59)      119.9951  119.4952  119.7296 estimate D2E/DX2         !
 ! A144  A(57,58,59)      119.6754  120.2117  120.1834 estimate D2E/DX2         !
 ! A145  A(13,62,31)        0.8784    8.5014  148.3802 estimate D2E/DX2         !
 ! D1    D(4,1,7,10)      128.0848  118.0929  116.3527 estimate D2E/DX2         !
 ! D2    D(4,1,7,25)      -55.4374  -65.7047  -65.8409 estimate D2E/DX2         !
 ! D3    D(6,1,7,10)       39.6384   28.7733   26.0902 estimate D2E/DX2         !
 ! D4    D(6,1,7,25)     -143.8838 -155.0243 -156.1034 estimate D2E/DX2         !
 ! D5    D(13,1,7,10)    -115.3283 -151.027   -86.5137 estimate D2E/DX2         !
 ! D6    D(13,1,7,25)      61.1495   25.1754   91.2927 estimate D2E/DX2         !
 ! D7    D(21,1,7,10)     -53.0353  -64.0218  -66.9962 estimate D2E/DX2         !
 ! D8    D(21,1,7,25)     123.4425  112.1806  110.8102 estimate D2E/DX2         !
 ! D9    D(61,1,7,10)    -165.7177  164.4312 -159.1273 estimate D2E/DX2         !
 ! D10   D(61,1,7,25)      10.7601  -19.3665   18.679  estimate D2E/DX2         !
 ! D11   D(2,1,15,16)    -114.2424 -132.5668  117.3152 estimate D2E/DX2         !
 ! D12   D(2,1,15,18)      66.6352   46.8712   -7.0382 estimate D2E/DX2         !
 ! D13   D(4,1,15,16)     142.1083  134.5698    8.9434 estimate D2E/DX2         !
 ! D14   D(4,1,15,18)     -37.0141  -45.9921 -115.41   estimate D2E/DX2         !
 ! D15   D(7,1,15,16)      68.1842   45.9148  -62.8995 estimate D2E/DX2         !
 ! D16   D(7,1,15,18)    -110.9382 -134.6472  172.7471 estimate D2E/DX2         !
 ! D17   D(21,1,15,16)    -39.9989  -43.5417 -170.8879 estimate D2E/DX2         !
 ! D18   D(21,1,15,18)    140.8787  135.8964   64.7587 estimate D2E/DX2         !
 ! D19   D(2,1,21,27)      60.7881   64.9775   66.0092 estimate D2E/DX2         !
 ! D20   D(2,1,21,54)    -124.1065 -119.1227 -116.3481 estimate D2E/DX2         !
 ! D21   D(6,1,21,27)     149.1928  154.3689  156.2852 estimate D2E/DX2         !
 ! D22   D(6,1,21,54)     -35.7018  -29.7313  -26.0721 estimate D2E/DX2         !
 ! D23   D(7,1,21,27)    -119.7909 -112.6715 -110.6537 estimate D2E/DX2         !
 ! D24   D(7,1,21,54)      55.3145   63.2282   66.989  estimate D2E/DX2         !
 ! D25   D(13,1,21,27)    -57.6256  -25.5371  -91.1356 estimate D2E/DX2         !
 ! D26   D(13,1,21,54)    117.4798  150.3627   86.5071 estimate D2E/DX2         !
 ! D27   D(61,1,21,27)     -5.9464   17.5031  -18.5141 estimate D2E/DX2         !
 ! D28   D(61,1,21,54)    169.159  -166.5972  159.1286 estimate D2E/DX2         !
 ! D29   D(1,7,10,33)     169.2673  170.9989  173.1231 estimate D2E/DX2         !
 ! D30   D(1,7,10,56)     -10.6893   -8.6878   -6.7473 estimate D2E/DX2         !
 ! D31   D(25,7,10,33)     -7.2925   -5.3429   -4.7922 estimate D2E/DX2         !
 ! D32   D(25,7,10,56)    172.751   174.9705  175.3374 estimate D2E/DX2         !
 ! D33   D(1,7,25,8)     -173.0954 -174.1697 -177.2166 estimate D2E/DX2         !
 ! D34   D(1,7,25,26)       5.2946    5.9781    1.8568 estimate D2E/DX2         !
 ! D35   D(10,7,25,8)       3.5627    2.1817    0.6474 estimate D2E/DX2         !
 ! D36   D(10,7,25,26)   -178.0473 -177.6705  179.7208 estimate D2E/DX2         !
 ! D37   D(11,8,9,12)      -1.5071   -1.589    -1.8553 estimate D2E/DX2         !
 ! D38   D(11,8,9,33)     178.2453  178.9627  178.9172 estimate D2E/DX2         !
 ! D39   D(25,8,9,12)     176.6135  176.9571  176.5923 estimate D2E/DX2         !
 ! D40   D(25,8,9,33)      -3.6342   -2.4911   -2.6352 estimate D2E/DX2         !
 ! D41   D(9,8,11,19)      89.4952  128.0158  111.5414 estimate D2E/DX2         !
 ! D42   D(25,8,11,19)    -88.62    -50.5278  -66.9071 estimate D2E/DX2         !
 ! D43   D(9,8,25,7)        1.7502    1.6357    2.9883 estimate D2E/DX2         !
 ! D44   D(9,8,25,26)    -176.5795 -178.5168 -176.0389 estimate D2E/DX2         !
 ! D45   D(11,8,25,7)     179.9021 -179.7923 -178.5399 estimate D2E/DX2         !
 ! D46   D(11,8,25,26)      1.5724    0.0552    2.4328 estimate D2E/DX2         !
 ! D47   D(8,9,33,10)       0.3375   -0.3199   -1.0696 estimate D2E/DX2         !
 ! D48   D(8,9,33,34)    -178.2377  179.0584  179.0325 estimate D2E/DX2         !
 ! D49   D(12,9,33,10)   -179.9101 -179.7707  179.6995 estimate D2E/DX2         !
 ! D50   D(12,9,33,34)      1.5148   -0.3925   -0.1985 estimate D2E/DX2         !
 ! D51   D(7,10,33,9)       5.3669    4.4392    5.015  estimate D2E/DX2         !
 ! D52   D(7,10,33,34)   -176.0247 -174.9538 -175.0839 estimate D2E/DX2         !
 ! D53   D(56,10,33,9)   -174.6775 -175.8802 -175.1168 estimate D2E/DX2         !
 ! D54   D(56,10,33,34)     3.9308    4.7267    4.7842 estimate D2E/DX2         !
 ! D55   D(8,11,19,16)    149.9848  117.7639   53.3578 estimate D2E/DX2         !
 ! D56   D(62,13,15,16)    14.1789    0.4233   89.7844 estimate D2E/DX2         !
 ! D57   D(62,13,15,18)  -165.4856 -179.8178  -89.249  estimate D2E/DX2         !
 ! D58   D(14,13,62,31)  -178.7777    1.3918 -178.9573 estimate D2E/DX2         !
 ! D59   D(14,15,16,17)   179.4883  179.857  -178.3155 estimate D2E/DX2         !
 ! D60   D(14,15,16,19)     0.0304   -0.1263    1.3773 estimate D2E/DX2         !
 ! D61   D(18,15,16,17)    -0.3627    0.0027    0.8132 estimate D2E/DX2         !
 ! D62   D(18,15,16,19)  -179.8206 -179.9806 -179.494  estimate D2E/DX2         !
 ! D63   D(14,15,18,20)     0.2218    0.1848   -1.3207 estimate D2E/DX2         !
 ! D64   D(14,15,18,58)  -179.6601 -179.8524  178.3373 estimate D2E/DX2         !
 ! D65   D(16,15,18,20)  -179.9247 -179.9624  179.5513 estimate D2E/DX2         !
 ! D66   D(16,15,18,58)     0.1934    0.0003   -0.7907 estimate D2E/DX2         !
 ! D67   D(15,16,17,29)  -179.5711  179.998   179.6371 estimate D2E/DX2         !
 ! D68   D(15,16,17,57)     0.2177   -0.0077   -0.1502 estimate D2E/DX2         !
 ! D69   D(19,16,17,29)    -0.1202   -0.0189   -0.0534 estimate D2E/DX2         !
 ! D70   D(19,16,17,57)   179.6686  179.9755 -179.8408 estimate D2E/DX2         !
 ! D71   D(15,16,19,11)   -51.1002  -64.5372  -76.5178 estimate D2E/DX2         !
 ! D72   D(17,16,19,11)   129.4484  115.4798  103.1717 estimate D2E/DX2         !
 ! D73   D(16,17,57,58)     0.096     0.0098   -0.5324 estimate D2E/DX2         !
 ! D74   D(16,17,57,60)  -179.9706 -179.988   179.6298 estimate D2E/DX2         !
 ! D75   D(29,17,57,58)   179.8857 -179.9959  179.6812 estimate D2E/DX2         !
 ! D76   D(29,17,57,60)    -0.1809    0.0063   -0.1566 estimate D2E/DX2         !
 ! D77   D(15,18,20,24)   -42.5701  -39.6752   72.2844 estimate D2E/DX2         !
 ! D78   D(15,18,20,61)   -12.1085    2.2233   79.8547 estimate D2E/DX2         !
 ! D79   D(58,18,20,24)   137.3094  140.3632 -107.37   estimate D2E/DX2         !
 ! D80   D(58,18,20,61)   167.771  -177.7383  -99.7997 estimate D2E/DX2         !
 ! D81   D(15,18,58,57)     0.1224    0.0017    0.1052 estimate D2E/DX2         !
 ! D82   D(15,18,58,59)  -179.9611  179.9964 -179.6257 estimate D2E/DX2         !
 ! D83   D(20,18,58,57)  -179.7565  179.9635  179.7607 estimate D2E/DX2         !
 ! D84   D(20,18,58,59)     0.16     -0.0418    0.0298 estimate D2E/DX2         !
 ! D85   D(18,20,24,22)    91.6914  118.348   -46.9348 estimate D2E/DX2         !
 ! D86   D(1,21,27,22)    171.6316  173.7347  176.964  estimate D2E/DX2         !
 ! D87   D(1,21,27,28)     -6.3797   -6.4186   -2.0847 estimate D2E/DX2         !
 ! D88   D(54,21,27,22)    -3.794    -2.3232   -0.7414 estimate D2E/DX2         !
 ! D89   D(54,21,27,28)   178.1947  177.5235 -179.79   estimate D2E/DX2         !
 ! D90   D(1,21,54,52)   -167.3407 -170.7064 -172.9049 estimate D2E/DX2         !
 ! D91   D(1,21,54,55)     12.1037    9.0522    6.903  estimate D2E/DX2         !
 ! D92   D(27,21,54,52)     7.8172    5.3464    4.8541 estimate D2E/DX2         !
 ! D93   D(27,21,54,55)  -172.7384 -174.895  -175.338  estimate D2E/DX2         !
 ! D94   D(24,22,23,52)  -178.8133 -178.8661 -178.9497 estimate D2E/DX2         !
 ! D95   D(24,22,23,53)     1.8009    1.5972    1.8437 estimate D2E/DX2         !
 ! D96   D(27,22,23,52)     3.5674    2.5283    2.6426 estimate D2E/DX2         !
 ! D97   D(27,22,23,53)  -175.8184 -177.0084 -176.5639 estimate D2E/DX2         !
 ! D98   D(23,22,24,20)  -127.4011 -167.1236 -114.2662 estimate D2E/DX2         !
 ! D99   D(27,22,24,20)    50.2119   11.4793   64.1416 estimate D2E/DX2         !
 ! D100  D(23,22,27,21)    -1.7411   -1.5128   -2.9271 estimate D2E/DX2         !
 ! D101  D(23,22,27,28)   176.1804  178.6454  176.0741 estimate D2E/DX2         !
 ! D102  D(24,22,27,21)  -179.3987  179.8569  178.6415 estimate D2E/DX2         !
 ! D103  D(24,22,27,28)    -1.4772    0.0151   -2.3573 estimate D2E/DX2         !
 ! D104  D(22,23,52,48)   179.6436 -179.5503 -179.0167 estimate D2E/DX2         !
 ! D105  D(22,23,52,54)    -0.0154    0.1582    1.0323 estimate D2E/DX2         !
 ! D106  D(53,23,52,48)    -0.9685   -0.0113    0.1935 estimate D2E/DX2         !
 ! D107  D(53,23,52,54)   179.3725  179.6972 -179.7574 estimate D2E/DX2         !
 ! D108  D(43,31,39,34)  -170.0901 -171.0588 -171.1073 estimate D2E/DX2         !
 ! D109  D(43,31,39,38)     8.3125    7.9929    8.0804 estimate D2E/DX2         !
 ! D110  D(62,31,39,34)  -177.9561 -178.5638   10.4416 estimate D2E/DX2         !
 ! D111  D(62,31,39,38)     0.4465    0.4878 -170.3707 estimate D2E/DX2         !
 ! D112  D(63,31,39,34)     9.1068    8.319  -178.7139 estimate D2E/DX2         !
 ! D113  D(63,31,39,38)  -172.4906 -172.6293    0.4738 estimate D2E/DX2         !
 ! D114  D(39,31,43,44)    -8.4607   -8.0368   -8.1047 estimate D2E/DX2         !
 ! D115  D(39,31,43,48)   170.3921  171.0122  171.1092 estimate D2E/DX2         !
 ! D116  D(62,31,43,44)    -0.5889   -0.532   170.3468 estimate D2E/DX2         !
 ! D117  D(62,31,43,48)   178.2639  178.517   -10.4393 estimate D2E/DX2         !
 ! D118  D(63,31,43,44)   172.3408  172.5853   -0.4984 estimate D2E/DX2         !
 ! D119  D(63,31,43,48)    -8.8064   -8.3657  178.7155 estimate D2E/DX2         !
 ! D120  D(39,31,62,13)   -92.8981   86.7475   89.3766 estimate D2E/DX2         !
 ! D121  D(43,31,62,13)    94.6373  -86.0571  -89.1292 estimate D2E/DX2         !
 ! D122  D(44,32,38,37)   177.785   178.0761  178.3863 estimate D2E/DX2         !
 ! D123  D(44,32,38,39)    -2.7641   -2.5547   -2.5202 estimate D2E/DX2         !
 ! D124  D(62,32,38,37)    -1.1355   -0.9271 -175.4289 estimate D2E/DX2         !
 ! D125  D(62,32,38,39)   178.3154  178.4421    3.6647 estimate D2E/DX2         !
 ! D126  D(63,32,38,37)  -176.3982 -176.3626   -0.8107 estimate D2E/DX2         !
 ! D127  D(63,32,38,39)     3.0527    3.0066  178.2828 estimate D2E/DX2         !
 ! D128  D(38,32,44,43)     2.622     2.5098    2.496  estimate D2E/DX2         !
 ! D129  D(38,32,44,45)  -178.0217 -178.1172 -178.4259 estimate D2E/DX2         !
 ! D130  D(62,32,44,43)  -178.4574 -178.4869   -3.689  estimate D2E/DX2         !
 ! D131  D(62,32,44,45)     0.8988    0.8861  175.3891 estimate D2E/DX2         !
 ! D132  D(63,32,44,43)    -3.1953   -3.052  -178.3071 estimate D2E/DX2         !
 ! D133  D(63,32,44,45)   176.161   176.3211    0.771  estimate D2E/DX2         !
 ! D134  D(9,33,34,35)     44.5335   51.0888   50.1007 estimate D2E/DX2         !
 ! D135  D(9,33,34,39)   -138.5617 -131.0271 -132.6936 estimate D2E/DX2         !
 ! D136  D(10,33,34,35)  -133.9897 -129.5527 -129.7941 estimate D2E/DX2         !
 ! D137  D(10,33,34,39)    42.9151   48.3314   47.4115 estimate D2E/DX2         !
 ! D138  D(33,34,35,36)   176.1689  176.8502  176.1599 estimate D2E/DX2         !
 ! D139  D(33,34,35,40)    -1.3555   -0.8529   -1.356  estimate D2E/DX2         !
 ! D140  D(39,34,35,36)    -0.7973   -1.0475   -1.0659 estimate D2E/DX2         !
 ! D141  D(39,34,35,40)  -178.3217 -178.7507 -178.5818 estimate D2E/DX2         !
 ! D142  D(33,34,39,31)     5.6467    5.0696    6.0886 estimate D2E/DX2         !
 ! D143  D(33,34,39,38)  -172.741  -173.9738 -173.0931 estimate D2E/DX2         !
 ! D144  D(35,34,39,31)  -177.4075 -177.0086 -176.6552 estimate D2E/DX2         !
 ! D145  D(35,34,39,38)     4.2048    3.9479    4.1631 estimate D2E/DX2         !
 ! D146  D(34,35,36,37)    -2.2596   -1.7539   -1.9335 estimate D2E/DX2         !
 ! D147  D(34,35,36,41)   179.8666 -179.946   179.9868 estimate D2E/DX2         !
 ! D148  D(40,35,36,37)   175.283   175.9639  175.5989 estimate D2E/DX2         !
 ! D149  D(40,35,36,41)    -2.5908   -2.2281   -2.4808 estimate D2E/DX2         !
 ! D150  D(35,36,37,38)     1.7806    1.5673    1.7411 estimate D2E/DX2         !
 ! D151  D(35,36,37,42)  -177.6235 -177.994  -177.8964 estimate D2E/DX2         !
 ! D152  D(41,36,37,38)   179.6255  179.737   179.7978 estimate D2E/DX2         !
 ! D153  D(41,36,37,42)     0.2215    0.1757    0.1604 estimate D2E/DX2         !
 ! D154  D(36,37,38,32)  -178.8754 -179.2627 -179.5119 estimate D2E/DX2         !
 ! D155  D(36,37,38,39)     1.673     1.3667    1.3922 estimate D2E/DX2         !
 ! D156  D(42,37,38,32)     0.5417    0.3067    0.1322 estimate D2E/DX2         !
 ! D157  D(42,37,38,39)  -178.9099 -179.0639 -178.9637 estimate D2E/DX2         !
 ! D158  D(32,38,39,31)    -2.5671   -2.5673   -2.6519 estimate D2E/DX2         !
 ! D159  D(32,38,39,34)   175.8885  176.5107  176.5569 estimate D2E/DX2         !
 ! D160  D(37,38,39,31)   176.8988  176.824   176.4737 estimate D2E/DX2         !
 ! D161  D(37,38,39,34)    -4.6456   -4.0979   -4.3176 estimate D2E/DX2         !
 ! D162  D(31,43,44,32)     2.8459    2.6566    2.6995 estimate D2E/DX2         !
 ! D163  D(31,43,44,45)  -176.529  -176.7383 -176.4112 estimate D2E/DX2         !
 ! D164  D(48,43,44,32)  -176.0438 -176.4191 -176.5346 estimate D2E/DX2         !
 ! D165  D(48,43,44,45)     4.5812    4.186     4.3546 estimate D2E/DX2         !
 ! D166  D(31,43,48,47)   176.8709  176.9457  176.5563 estimate D2E/DX2         !
 ! D167  D(31,43,48,52)    -5.7136   -5.2827   -6.1537 estimate D2E/DX2         !
 ! D168  D(44,43,48,47)    -4.2854   -4.0136   -4.2356 estimate D2E/DX2         !
 ! D169  D(44,43,48,52)   173.13    173.758   173.0544 estimate D2E/DX2         !
 ! D170  D(32,44,45,46)   179.0671  179.2214  179.5474 estimate D2E/DX2         !
 ! D171  D(32,44,45,49)    -0.5473   -0.3466   -0.1163 estimate D2E/DX2         !
 ! D172  D(43,44,45,46)    -1.5764   -1.4041   -1.3722 estimate D2E/DX2         !
 ! D173  D(43,44,45,49)   178.8092  179.0279  178.9641 estimate D2E/DX2         !
 ! D174  D(44,45,46,47)    -1.769    -1.6024   -1.7832 estimate D2E/DX2         !
 ! D175  D(44,45,46,50)  -179.8415 -179.7387 -179.8274 estimate D2E/DX2         !
 ! D176  D(49,45,46,47)   177.8373  177.9574  177.8742 estimate D2E/DX2         !
 ! D177  D(49,45,46,50)    -0.2352   -0.1789   -0.1699 estimate D2E/DX2         !
 ! D178  D(45,46,47,48)     2.0961    1.8123    1.9391 estimate D2E/DX2         !
 ! D179  D(45,46,47,51)  -175.2952 -175.853  -175.6076 estimate D2E/DX2         !
 ! D180  D(50,46,47,48)  -179.8086  179.9713 -179.9938 estimate D2E/DX2         !
 ! D181  D(50,46,47,51)     2.8002    2.306     2.4595 estimate D2E/DX2         !
 ! D182  D(46,47,48,43)     0.9914    1.0412    1.1177 estimate D2E/DX2         !
 ! D183  D(46,47,48,52)  -176.4207 -176.7106 -176.1422 estimate D2E/DX2         !
 ! D184  D(51,47,48,43)   178.3646  178.691   178.648  estimate D2E/DX2         !
 ! D185  D(51,47,48,52)     0.9525    0.9392    1.388  estimate D2E/DX2         !
 ! D186  D(43,48,52,23)   135.2532  131.8205  132.61   estimate D2E/DX2         !
 ! D187  D(43,48,52,54)   -45.0993  -47.8786  -47.4405 estimate D2E/DX2         !
 ! D188  D(47,48,52,23)   -47.3753  -50.4459  -50.15   estimate D2E/DX2         !
 ! D189  D(47,48,52,54)   132.2722  129.855   129.7995 estimate D2E/DX2         !
 ! D190  D(23,52,54,21)    -5.9471   -4.2914   -5.0121 estimate D2E/DX2         !
 ! D191  D(23,52,54,55)   174.6203  175.9547  175.1833 estimate D2E/DX2         !
 ! D192  D(48,52,54,21)   174.3853  175.4238  175.0354 estimate D2E/DX2         !
 ! D193  D(48,52,54,55)    -5.0473   -4.3301   -4.7691 estimate D2E/DX2         !
 ! D194  D(17,57,58,18)    -0.2674   -0.0068    0.5552 estimate D2E/DX2         !
 ! D195  D(17,57,58,59)   179.8158  179.9986 -179.7151 estimate D2E/DX2         !
 ! D196  D(60,57,58,18)   179.7993  179.991  -179.607  estimate D2E/DX2         !
 ! D197  D(60,57,58,59)    -0.1175   -0.0036    0.1226 estimate D2E/DX2         !
 --------------------------------------------------------------------------------
 Trust Radius=3.00D-01 FncErr=1.00D-07 GrdErr=1.00D-06 EigMax=2.50D+02 EigMin=1.00D-04
 Number of steps in this run=    378 maximum allowed number of steps=    378.
 Search for a saddle point of order  1.
 GradGradGradGradGradGradGradGradGradGradGradGradGradGradGradGradGradGrad

 Stoichiometry    C34H21BrMnN3O3
 Framework group  C1[X(C34H21BrMnN3O3)]
 Deg. of freedom   183
 Full point group                 C1      NOp   1
 Largest Abelian subgroup         C1      NOp   1
 Largest concise Abelian subgroup C1      NOp   1
                         Standard orientation:                         
 ---------------------------------------------------------------------
 Center     Atomic      Atomic             Coordinates (Angstroms)
 Number     Number       Type             X           Y           Z
 ---------------------------------------------------------------------
      1         25           0       -1.512788   -1.869816   -0.010743
      2          6           0       -2.369515   -2.822815   -1.313331
      3          8           0       -2.813193   -3.474792   -2.143131
      4          6           0       -2.422856   -2.762922    1.310572
      5          8           0       -2.877658   -3.384388    2.157370
      6          6           0       -0.278281   -3.141082    0.044442
      7          7           0       -0.579456   -0.859090    1.532864
      8          6           0       -0.752808    0.600060    3.426880
      9          6           0        0.629033    0.782847    3.443571
     10          6           0        0.749994   -0.759893    1.629087
     11          1           0       -1.399837    1.106638    4.148658
     12          1           0        1.089573    1.459599    4.168370
     13          7           0       -2.038941    0.758964   -0.018740
     14          6           0       -2.197997    1.906475   -0.031011
     15          6           0       -2.439287    3.328424   -0.010902
     16          6           0       -1.409858    4.231468   -0.293669
     17          6           0       -1.671042    5.603321   -0.278351
     18          6           0       -3.721834    3.795207    0.293163
     19          1           0       -0.417479    3.855974   -0.531561
     20          1           0       -4.509587    3.072642    0.511794
     21          7           0       -0.550845   -0.872442   -1.530606
     22          6           0       -0.726202    0.662828   -3.362725
     23          6           0        0.657499    0.823292   -3.394557
     24          1           0       -1.373835    1.213284   -4.046833
     25          6           0       -1.317715   -0.209002    2.452030
     26          1           0       -2.403098   -0.323853    2.383441
     27          6           0       -1.290707   -0.175228   -2.410820
     28          1           0       -2.376111   -0.274294   -2.319879
     29          1           0       -0.875782    6.313504   -0.504509
     30          8           0        0.486402   -4.000811    0.110306
     31          6           0        2.970505    0.387516    0.005788
     32          6           0        5.750198    0.221386    0.019816
     33          6           0        1.419818    0.085312    2.524454
     34          6           0        2.907929    0.191655    2.496973
     35          6           0        3.625443    0.143116    3.665944
     36          6           0        5.054375    0.160897    3.669868
     37          6           0        5.754053    0.181069    2.497536
     38          6           0        5.062410    0.223183    1.241344
     39          6           0        3.625443    0.280452    1.236997
     40          1           0        3.097241    0.048343    4.619460
     41          1           0        5.581729    0.122639    4.626752
     42          1           0        6.848752    0.155796    2.494828
     43          6           0        3.639774    0.270672   -1.217670
     44          6           0        5.076487    0.216475   -1.208630
     45          6           0        5.779828    0.172560   -2.459291
     46          6           0        5.091843    0.149846   -3.637407
     47          6           0        3.662966    0.131357   -3.647289
     48          6           0        2.934641    0.178468   -2.484093
     49          1           0        6.874328    0.151292   -2.447914
     50          1           0        5.630029    0.113771   -4.589114
     51          1           0        3.143688    0.034821   -4.604678
     52          6           0        1.446595    0.077915   -2.515588
     53          1           0        1.121313    1.529589   -4.089872
     54          6           0        0.776674   -0.795053   -1.647162
     55          1           0        1.362044   -1.456248   -1.010350
     56          1           0        1.336288   -1.386678    0.956349
     57          6           0       -2.945856    6.070761    0.020631
     58          6           0       -3.968402    5.169190    0.308485
     59          1           0       -4.963408    5.540660    0.544727
     60          1           0       -3.145726    7.149730    0.030800
     61         35           0       -4.466846   -1.172403   -0.092183
     62          1           0        6.845645    0.205851    0.025947
     63          1           0        1.894936    0.555812   -0.002946
 ---------------------------------------------------------------------
 Rotational constants (GHZ):           0.0912683           0.0562333           0.0516093
 General basis read from cards:  (5D, 7F)
 There are   802 symmetry adapted cartesian basis functions of A   symmetry.
 There are   751 symmetry adapted basis functions of A   symmetry.
   751 basis functions,  1339 primitive gaussians,   802 cartesian basis functions
   165 alpha electrons      165 beta electrons
       nuclear repulsion energy      6080.6084579699 Hartrees.
 NAtoms=   63 NActive=   63 NUniq=   63 SFac= 1.00D+00 NAtFMM=   60 NAOKFM=T Big=T
 Integral buffers will be    131072 words long.
 Raffenetti 2 integral format.
 Two-electron integral symmetry is turned on.
 Nuclear repulsion after empirical dispersion term =     6080.5429498078 Hartrees.
 ------------------------------------------------------------------------------
 Polarizable Continuum Model (PCM)
 =================================
 Model                : PCM.
 Atomic radii         : UFF (Universal Force Field).
 Polarization charges : Total charges.
 Charge compensation  : None.
 Solution method      : On-the-fly selection.
 Cavity type          : Scaled VdW (van der Waals Surface) (Alpha=1.100).
 Cavity algorithm     : GePol (No added spheres)
                        Default sphere list used, NSphG=   63.
                        Lebedev-Laikov grids with approx.  5.0 points / Ang**2.
                        Smoothing algorithm: York/Karplus (Gamma=1.0000).
                        Polarization charges: spherical gaussians, with
                                              point-specific exponents (IZeta= 3).
                        Self-potential: point-specific (ISelfS= 7).
                        Self-field    : sphere-specific E.n sum rule (ISelfD= 2).
 1st derivatives      : Analytical E(r).r(x)/FMM algorithm (CHGder, D1EAlg=3).
                        Cavity 1st derivative terms included.
 Solvent              : TetraHydroFuran, Eps=   7.425700 Eps(inf)=   1.974025
 ------------------------------------------------------------------------------
 One-electron integrals computed using PRISM.
 PrsmSu:  requested number of processors reduced to:  11 ShMem   1 Linda.
 NBasis=   751 RedAO= T EigKep=  2.30D-04  NBF=   751
 NBsUse=   751 1.00D-06 EigRej= -1.00D+00 NBFU=   751
 ExpMin= 3.93D-02 ExpMax= 2.77D+05 ExpMxC= 1.70D+04 IAcc=3 IRadAn=         5 AccDes= 0.00D+00
 Harris functional with IExCor= 4639 and IRadAn=       5 diagonalized for initial guess.
 HarFok:  IExCor= 4639 AccDes= 0.00D+00 IRadAn=         5 IDoV= 1 UseB2=F ITyADJ=14
 ICtDFT=  3500011 ScaDFX=  1.000000  1.000000  1.000000  1.000000
 FoFCou: FMM=F IPFlag=           0 FMFlag=      100000 FMFlg1=        2001
         NFxFlg=           0 DoJE=T BraDBF=F KetDBF=T FulRan=T
         wScrn=  0.000000 ICntrl=       500 IOpCl=  0 I1Cent=   200000004 NGrid=           0
         NMat0=    1 NMatS0=      1 NMatT0=    0 NMatD0=    1 NMtDS0=    0 NMtDT0=    0
 Petite list used in FoFCou.
 Requested convergence on RMS density matrix=1.00D-08 within 128 cycles.
 Requested convergence on MAX density matrix=1.00D-06.
 Requested convergence on             energy=1.00D-06.
 No special actions if energy rises.
 CoulSu:  requested number of processors reduced to:  10 ShMem   1 Linda.
 Inv3:  Mode=1 IEnd=    67232268.
 Iteration    1 A*A^-1 deviation from unit magnitude is 3.55D-15 for     55.
 Iteration    1 A*A^-1 deviation from orthogonality  is 2.44D-15 for   2853     58.
 Iteration    1 A^-1*A deviation from unit magnitude is 3.33D-15 for     55.
 Iteration    1 A^-1*A deviation from orthogonality  is 3.16D-15 for   3579   3561.
 CoulSu:  requested number of processors reduced to:  10 ShMem   1 Linda.
 CoulSu:  requested number of processors reduced to:  10 ShMem   1 Linda.
 Error on total polarization charges =  0.01982
 SCF Done:  E(RwB97XD) =  -5421.43141719     A.U. after   20 cycles
            NFock= 20  Conv=0.57D-08     -V/T= 2.0041

 **********************************************************************

            Population analysis using the SCF density.

 **********************************************************************

 Orbital symmetries:
       Occupied  (A) (A) (A) (A) (A) (A) (A) (A) (A) (A) (A) (A)
                 (A) (A) (A) (A) (A) (A) (A) (A) (A) (A) (A) (A)
                 (A) (A) (A) (A) (A) (A) (A) (A) (A) (A) (A) (A)
                 (A) (A) (A) (A) (A) (A) (A) (A) (A) (A) (A) (A)
                 (A) (A) (A) (A) (A) (A) (A) (A) (A) (A) (A) (A)
                 (A) (A) (A) (A) (A) (A) (A) (A) (A) (A) (A) (A)
                 (A) (A) (A) (A) (A) (A) (A) (A) (A) (A) (A) (A)
                 (A) (A) (A) (A) (A) (A) (A) (A) (A) (A) (A) (A)
                 (A) (A) (A) (A) (A) (A) (A) (A) (A) (A) (A) (A)
                 (A) (A) (A) (A) (A) (A) (A) (A) (A) (A) (A) (A)
                 (A) (A) (A) (A) (A) (A) (A) (A) (A) (A) (A) (A)
                 (A) (A) (A) (A) (A) (A) (A) (A) (A) (A) (A) (A)
                 (A) (A) (A) (A) (A) (A) (A) (A) (A) (A) (A) (A)
                 (A) (A) (A) (A) (A) (A) (A) (A) (A)
       Virtual   (A) (A) (A) (A) (A) (A) (A) (A) (A) (A) (A) (A)
                 (A) (A) (A) (A) (A) (A) (A) (A) (A) (A) (A) (A)
                 (A) (A) (A) (A) (A) (A) (A) (A) (A) (A) (A) (A)
                 (A) (A) (A) (A) (A) (A) (A) (A) (A) (A) (A) (A)
                 (A) (A) (A) (A) (A) (A) (A) (A) (A) (A) (A) (A)
                 (A) (A) (A) (A) (A) (A) (A) (A) (A) (A) (A) (A)
                 (A) (A) (A) (A) (A) (A) (A) (A) (A) (A) (A) (A)
                 (A) (A) (A) (A) (A) (A) (A) (A) (A) (A) (A) (A)
                 (A) (A) (A) (A) (A) (A) (A) (A) (A) (A) (A) (A)
                 (A) (A) (A) (A) (A) (A) (A) (A) (A) (A) (A) (A)
                 (A) (A) (A) (A) (A) (A) (A) (A) (A) (A) (A) (A)
                 (A) (A) (A) (A) (A) (A) (A) (A) (A) (A) (A) (A)
                 (A) (A) (A) (A) (A) (A) (A) (A) (A) (A) (A) (A)
                 (A) (A) (A) (A) (A) (A) (A) (A) (A) (A) (A) (A)
                 (A) (A) (A) (A) (A) (A) (A) (A) (A) (A) (A) (A)
                 (A) (A) (A) (A) (A) (A) (A) (A) (A) (A) (A) (A)
                 (A) (A) (A) (A) (A) (A) (A) (A) (A) (A) (A) (A)
                 (A) (A) (A) (A) (A) (A) (A) (A) (A) (A) (A) (A)
                 (A) (A) (A) (A) (A) (A) (A) (A) (A) (A) (A) (A)
                 (A) (A) (A) (A) (A) (A) (A) (A) (A) (A) (A) (A)
                 (A) (A) (A) (A) (A) (A) (A) (A) (A) (A) (A) (A)
                 (A) (A) (A) (A) (A) (A) (A) (A) (A) (A) (A) (A)
                 (A) (A) (A) (A) (A) (A) (A) (A) (A) (A) (A) (A)
                 (A) (A) (A) (A) (A) (A) (A) (A) (A) (A) (A) (A)
                 (A) (A) (A) (A) (A) (A) (A) (A) (A) (A) (A) (A)
                 (A) (A) (A) (A) (A) (A) (A) (A) (A) (A) (A) (A)
                 (A) (A) (A) (A) (A) (A) (A) (A) (A) (A) (A) (A)
                 (A) (A) (A) (A) (A) (A) (A) (A) (A) (A) (A) (A)
                 (A) (A) (A) (A) (A) (A) (A) (A) (A) (A) (A) (A)
                 (A) (A) (A) (A) (A) (A) (A) (A) (A) (A) (A) (A)
                 (A) (A) (A) (A) (A) (A) (A) (A) (A) (A) (A) (A)
                 (A) (A) (A) (A) (A) (A) (A) (A) (A) (A) (A) (A)
                 (A) (A) (A) (A) (A) (A) (A) (A) (A) (A) (A) (A)
                 (A) (A) (A) (A) (A) (A) (A) (A) (A) (A) (A) (A)
                 (A) (A) (A) (A) (A) (A) (A) (A) (A) (A) (A) (A)
                 (A) (A) (A) (A) (A) (A) (A) (A) (A) (A) (A) (A)
                 (A) (A) (A) (A) (A) (A) (A) (A) (A) (A) (A) (A)
                 (A) (A) (A) (A) (A) (A) (A) (A) (A) (A) (A) (A)
                 (A) (A) (A) (A) (A) (A) (A) (A) (A) (A) (A) (A)
                 (A) (A) (A) (A) (A) (A) (A) (A) (A) (A) (A) (A)
                 (A) (A) (A) (A) (A) (A) (A) (A) (A) (A) (A) (A)
                 (A) (A) (A) (A) (A) (A) (A) (A) (A) (A) (A) (A)
                 (A) (A) (A) (A) (A) (A) (A) (A) (A) (A) (A) (A)
                 (A) (A) (A) (A) (A) (A) (A) (A) (A) (A) (A) (A)
                 (A) (A) (A) (A) (A) (A) (A) (A) (A) (A) (A) (A)
                 (A) (A) (A) (A) (A) (A) (A) (A) (A) (A) (A) (A)
                 (A) (A) (A) (A) (A) (A) (A) (A) (A) (A) (A) (A)
                 (A) (A) (A) (A) (A) (A) (A) (A) (A) (A) (A) (A)
                 (A) (A) (A) (A) (A) (A) (A) (A) (A) (A)
 The electronic state is 1-A.
 Alpha  occ. eigenvalues -- -482.96832-235.68935 -62.54855 -56.35447 -56.35400
 Alpha  occ. eigenvalues --  -56.35385 -27.45771 -23.51557 -23.51495 -23.51223
 Alpha  occ. eigenvalues --  -19.33212 -19.32972 -19.32925 -14.50066 -14.50033
 Alpha  occ. eigenvalues --  -14.46264 -10.40950 -10.40749 -10.40632 -10.36578
 Alpha  occ. eigenvalues --  -10.36557 -10.36031 -10.35942 -10.35910 -10.35513
 Alpha  occ. eigenvalues --  -10.34343 -10.34274 -10.34188 -10.34166 -10.33514
 Alpha  occ. eigenvalues --  -10.33494 -10.33331 -10.33233 -10.33217 -10.33193
 Alpha  occ. eigenvalues --  -10.32980 -10.32904 -10.32803 -10.32798 -10.32557
 Alpha  occ. eigenvalues --  -10.32333 -10.32266 -10.32208 -10.32203 -10.32025
 Alpha  occ. eigenvalues --  -10.31961 -10.31928 -10.31917 -10.31781 -10.31776
 Alpha  occ. eigenvalues --   -8.71611  -6.53407  -6.53247  -6.53195  -3.25212
 Alpha  occ. eigenvalues --   -2.63898  -2.63867  -2.63824  -2.63696  -2.63693
 Alpha  occ. eigenvalues --   -2.10861  -2.10510  -2.10039  -1.22176  -1.21947
 Alpha  occ. eigenvalues --   -1.21651  -1.08095  -1.07731  -1.01914  -1.00017
 Alpha  occ. eigenvalues --   -0.97868  -0.97314  -0.94108  -0.92902  -0.91146
 Alpha  occ. eigenvalues --   -0.90483  -0.89384  -0.88204  -0.87112  -0.86242
 Alpha  occ. eigenvalues --   -0.84998  -0.84726  -0.81745  -0.76640  -0.76371
 Alpha  occ. eigenvalues --   -0.75449  -0.75057  -0.75007  -0.74535  -0.74093
 Alpha  occ. eigenvalues --   -0.72125  -0.72018  -0.70075  -0.68730  -0.67474
 Alpha  occ. eigenvalues --   -0.65682  -0.64552  -0.64431  -0.64312  -0.63904
 Alpha  occ. eigenvalues --   -0.63827  -0.62401  -0.61744  -0.60565  -0.59683
 Alpha  occ. eigenvalues --   -0.59153  -0.57615  -0.57399  -0.57237  -0.57100
 Alpha  occ. eigenvalues --   -0.56245  -0.56106  -0.55881  -0.55626  -0.55228
 Alpha  occ. eigenvalues --   -0.55073  -0.54692  -0.54478  -0.54240  -0.54127
 Alpha  occ. eigenvalues --   -0.53435  -0.53110  -0.53046  -0.52820  -0.52257
 Alpha  occ. eigenvalues --   -0.52146  -0.51912  -0.51011  -0.50996  -0.50779
 Alpha  occ. eigenvalues --   -0.50409  -0.50119  -0.49896  -0.49214  -0.48579
 Alpha  occ. eigenvalues --   -0.48050  -0.47850  -0.47272  -0.47058  -0.45914
 Alpha  occ. eigenvalues --   -0.45826  -0.44980  -0.44672  -0.43752  -0.43476
 Alpha  occ. eigenvalues --   -0.42928  -0.41780  -0.41617  -0.41039  -0.40445
 Alpha  occ. eigenvalues --   -0.40015  -0.39227  -0.37499  -0.36142  -0.35502
 Alpha  occ. eigenvalues --   -0.35242  -0.33882  -0.33190  -0.33089  -0.32214
 Alpha  occ. eigenvalues --   -0.30846  -0.30202  -0.29893  -0.28305  -0.27847
 Alpha virt. eigenvalues --   -0.02923   0.00096   0.00521   0.00680   0.02069
 Alpha virt. eigenvalues --    0.02415   0.02496   0.03534   0.03882   0.05821
 Alpha virt. eigenvalues --    0.06186   0.06928   0.07937   0.07971   0.09282
 Alpha virt. eigenvalues --    0.09386   0.09597   0.10023   0.11609   0.11906
 Alpha virt. eigenvalues --    0.12178   0.12480   0.13403   0.13912   0.14386
 Alpha virt. eigenvalues --    0.14427   0.14803   0.15275   0.15426   0.16046
 Alpha virt. eigenvalues --    0.16272   0.16625   0.17300   0.18014   0.18818
 Alpha virt. eigenvalues --    0.19164   0.19681   0.19772   0.20589   0.20877
 Alpha virt. eigenvalues --    0.20946   0.21830   0.22188   0.22440   0.22900
 Alpha virt. eigenvalues --    0.23350   0.23572   0.23660   0.24740   0.25404
 Alpha virt. eigenvalues --    0.26652   0.26821   0.27629   0.27975   0.28930
 Alpha virt. eigenvalues --    0.29050   0.29929   0.30097   0.30688   0.30924
 Alpha virt. eigenvalues --    0.31019   0.31711   0.32500   0.32533   0.32843
 Alpha virt. eigenvalues --    0.33368   0.33762   0.33880   0.33969   0.34173
 Alpha virt. eigenvalues --    0.34260   0.34994   0.35368   0.35912   0.36097
 Alpha virt. eigenvalues --    0.36364   0.36705   0.36810   0.37678   0.37745
 Alpha virt. eigenvalues --    0.38347   0.38480   0.38949   0.39456   0.39993
 Alpha virt. eigenvalues --    0.40501   0.40802   0.41925   0.41993   0.42211
 Alpha virt. eigenvalues --    0.42287   0.43089   0.43347   0.43920   0.44584
 Alpha virt. eigenvalues --    0.44822   0.46060   0.46277   0.47122   0.47553
 Alpha virt. eigenvalues --    0.47782   0.48223   0.48586   0.48808   0.49438
 Alpha virt. eigenvalues --    0.50521   0.50808   0.50851   0.51211   0.51754
 Alpha virt. eigenvalues --    0.52319   0.52578   0.52864   0.53115   0.53534
 Alpha virt. eigenvalues --    0.53579   0.53679   0.54476   0.54567   0.55060
 Alpha virt. eigenvalues --    0.55259   0.55768   0.56142   0.56255   0.56471
 Alpha virt. eigenvalues --    0.56903   0.57476   0.58110   0.58456   0.58767
 Alpha virt. eigenvalues --    0.59579   0.59670   0.60500   0.60915   0.60991
 Alpha virt. eigenvalues --    0.61105   0.61363   0.61575   0.62114   0.62476
 Alpha virt. eigenvalues --    0.63757   0.64177   0.64245   0.64716   0.65298
 Alpha virt. eigenvalues --    0.65634   0.66394   0.66548   0.66904   0.67175
 Alpha virt. eigenvalues --    0.67397   0.68159   0.68191   0.68631   0.69169
 Alpha virt. eigenvalues --    0.69358   0.70389   0.70543   0.71034   0.71379
 Alpha virt. eigenvalues --    0.71924   0.72045   0.72215   0.72469   0.72709
 Alpha virt. eigenvalues --    0.73227   0.73385   0.73633   0.73744   0.74014
 Alpha virt. eigenvalues --    0.74323   0.74613   0.74935   0.75191   0.75521
 Alpha virt. eigenvalues --    0.75925   0.76089   0.76220   0.76486   0.77092
 Alpha virt. eigenvalues --    0.77305   0.77464   0.77653   0.78349   0.78635
 Alpha virt. eigenvalues --    0.79098   0.79531   0.79755   0.80278   0.80356
 Alpha virt. eigenvalues --    0.80687   0.80898   0.81624   0.81916   0.82052
 Alpha virt. eigenvalues --    0.82727   0.83125   0.83464   0.83682   0.84309
 Alpha virt. eigenvalues --    0.84409   0.84849   0.85477   0.85822   0.85890
 Alpha virt. eigenvalues --    0.86122   0.86642   0.86978   0.87282   0.87744
 Alpha virt. eigenvalues --    0.87888   0.88163   0.88352   0.88504   0.89199
 Alpha virt. eigenvalues --    0.90019   0.90098   0.90726   0.91298   0.91641
 Alpha virt. eigenvalues --    0.91788   0.91995   0.92541   0.92932   0.93663
 Alpha virt. eigenvalues --    0.94175   0.95024   0.95461   0.96007   0.96514
 Alpha virt. eigenvalues --    0.96813   0.97418   0.98204   0.98343   0.98786
 Alpha virt. eigenvalues --    1.00551   1.01536   1.01821   1.02225   1.02965
 Alpha virt. eigenvalues --    1.03272   1.03611   1.05010   1.06117   1.06717
 Alpha virt. eigenvalues --    1.07944   1.08287   1.09616   1.10319   1.11505
 Alpha virt. eigenvalues --    1.12110   1.12792   1.13262   1.14694   1.15437
 Alpha virt. eigenvalues --    1.15829   1.16306   1.16776   1.17255   1.17566
 Alpha virt. eigenvalues --    1.18653   1.19341   1.20010   1.21673   1.22010
 Alpha virt. eigenvalues --    1.22357   1.23586   1.24077   1.25115   1.25472
 Alpha virt. eigenvalues --    1.26010   1.26103   1.27129   1.28314   1.28778
 Alpha virt. eigenvalues --    1.29741   1.29849   1.30002   1.30249   1.30638
 Alpha virt. eigenvalues --    1.30831   1.31084   1.31593   1.32067   1.32609
 Alpha virt. eigenvalues --    1.32902   1.34053   1.34280   1.34681   1.35169
 Alpha virt. eigenvalues --    1.35354   1.35505   1.36350   1.36463   1.36580
 Alpha virt. eigenvalues --    1.36913   1.37700   1.39159   1.39489   1.39658
 Alpha virt. eigenvalues --    1.40212   1.41054   1.41333   1.41862   1.42778
 Alpha virt. eigenvalues --    1.43150   1.44814   1.44964   1.45854   1.46242
 Alpha virt. eigenvalues --    1.48629   1.49175   1.50913   1.51672   1.52950
 Alpha virt. eigenvalues --    1.55463   1.55709   1.56544   1.57638   1.59468
 Alpha virt. eigenvalues --    1.60285   1.60532   1.63119   1.64452   1.64659
 Alpha virt. eigenvalues --    1.66765   1.66980   1.67582   1.68051   1.69970
 Alpha virt. eigenvalues --    1.71021   1.71920   1.72142   1.72766   1.72966
 Alpha virt. eigenvalues --    1.73191   1.73608   1.73931   1.74076   1.75000
 Alpha virt. eigenvalues --    1.75267   1.75948   1.76409   1.77372   1.77620
 Alpha virt. eigenvalues --    1.78181   1.78438   1.78706   1.78923   1.79163
 Alpha virt. eigenvalues --    1.79497   1.79788   1.79960   1.80137   1.80734
 Alpha virt. eigenvalues --    1.81133   1.81280   1.81621   1.81832   1.81987
 Alpha virt. eigenvalues --    1.82311   1.82496   1.82598   1.82884   1.83257
 Alpha virt. eigenvalues --    1.83607   1.84394   1.84613   1.85234   1.85413
 Alpha virt. eigenvalues --    1.86057   1.86272   1.86803   1.87583   1.88256
 Alpha virt. eigenvalues --    1.88917   1.89561   1.89779   1.90386   1.90679
 Alpha virt. eigenvalues --    1.90921   1.91455   1.91750   1.92623   1.93822
 Alpha virt. eigenvalues --    1.94178   1.95459   1.95965   1.96401   1.97465
 Alpha virt. eigenvalues --    1.97885   1.98260   1.98610   1.99605   2.00303
 Alpha virt. eigenvalues --    2.00580   2.00992   2.01813   2.02266   2.02676
 Alpha virt. eigenvalues --    2.03107   2.03602   2.03913   2.04542   2.04910
 Alpha virt. eigenvalues --    2.05653   2.05826   2.06430   2.07065   2.07469
 Alpha virt. eigenvalues --    2.09034   2.09592   2.09795   2.10598   2.10904
 Alpha virt. eigenvalues --    2.10989   2.11984   2.12843   2.13948   2.15468
 Alpha virt. eigenvalues --    2.15628   2.16348   2.16993   2.17144   2.17537
 Alpha virt. eigenvalues --    2.18054   2.18845   2.20297   2.20467   2.20816
 Alpha virt. eigenvalues --    2.20885   2.21604   2.22054   2.22336   2.22948
 Alpha virt. eigenvalues --    2.24090   2.24437   2.24789   2.26006   2.26465
 Alpha virt. eigenvalues --    2.26862   2.29580   2.30919   2.31359   2.31950
 Alpha virt. eigenvalues --    2.32255   2.32517   2.33327   2.34300   2.34909
 Alpha virt. eigenvalues --    2.35223   2.36890   2.37288   2.37519   2.37623
 Alpha virt. eigenvalues --    2.38008   2.38391   2.38951   2.39436   2.39605
 Alpha virt. eigenvalues --    2.41294   2.41712   2.42487   2.42645   2.43366
 Alpha virt. eigenvalues --    2.44057   2.45234   2.45703   2.46508   2.46939
 Alpha virt. eigenvalues --    2.48004   2.48591   2.50199   2.50656   2.50862
 Alpha virt. eigenvalues --    2.54110   2.55896   2.57005   2.59269   2.59824
 Alpha virt. eigenvalues --    2.60744   2.61813   2.62004   2.64056   2.64777
 Alpha virt. eigenvalues --    2.66041   2.66943   2.67091   2.67501   2.67708
 Alpha virt. eigenvalues --    2.68262   2.68668   2.70842   2.70989   2.71141
 Alpha virt. eigenvalues --    2.71193   2.71255   2.71668   2.71897   2.72151
 Alpha virt. eigenvalues --    2.72276   2.72832   2.73372   2.74351   2.74830
 Alpha virt. eigenvalues --    2.75679   2.76913   2.79249   2.79607   2.79960
 Alpha virt. eigenvalues --    2.80667   2.80818   2.81251   2.81725   2.82109
 Alpha virt. eigenvalues --    2.84435   2.85556   2.86076   2.86879   2.87133
 Alpha virt. eigenvalues --    2.89768   2.90634   2.91722   2.95501   2.95676
 Alpha virt. eigenvalues --    2.96437   2.97929   2.98040   2.99428   3.01005
 Alpha virt. eigenvalues --    3.03191   3.05156   3.05954   3.06522   3.07531
 Alpha virt. eigenvalues --    3.09083   3.10240   3.10324   3.12016   3.12718
 Alpha virt. eigenvalues --    3.15824   3.16602   3.19315   3.19988   3.20515
 Alpha virt. eigenvalues --    3.20997   3.21093   3.22775   3.23409   3.25123
 Alpha virt. eigenvalues --    3.25397   3.30132   3.31325   3.32872   3.35099
 Alpha virt. eigenvalues --    3.38479   3.39112   3.42339   3.49466   3.50330
 Alpha virt. eigenvalues --    3.51402   3.53591   3.55225   3.57520   3.59669
 Alpha virt. eigenvalues --    3.62651   3.63785   3.64413   3.65291   3.66122
 Alpha virt. eigenvalues --    3.66247   3.66744   3.71750   3.71855   3.73053
 Alpha virt. eigenvalues --    3.76077   3.76840   3.77187   3.81363   3.81967
 Alpha virt. eigenvalues --    3.82605   3.91399   3.94417   4.00086   4.07245
 Alpha virt. eigenvalues --    4.13424
          Condensed to atoms (all electrons):
 Mulliken charges:
               1
     1  Mn  -0.725270
     2  C    0.371492
     3  O   -0.068836
     4  C    0.366584
     5  O   -0.066987
     6  C    0.308102
     7  N   -0.220922
     8  C   -0.036269
     9  C    0.032934
    10  C    0.096162
    11  H    0.060981
    12  H    0.053131
    13  N    0.017377
    14  C    0.001049
    15  C   -0.149119
    16  C    0.024201
    17  C   -0.025510
    18  C    0.022140
    19  H    0.041327
    20  H    0.060654
    21  N   -0.222001
    22  C   -0.035910
    23  C    0.035922
    24  H    0.059147
    25  C    0.112471
    26  H    0.093390
    27  C    0.116773
    28  H    0.096831
    29  H    0.049957
    30  O   -0.086111
    31  C   -0.186901
    32  C   -0.083872
    33  C   -0.034182
    34  C    0.067169
    35  C   -0.068136
    36  C   -0.018935
    37  C   -0.019514
    38  C    0.016581
    39  C    0.078840
    40  H    0.035667
    41  H    0.043665
    42  H    0.032687
    43  C    0.076164
    44  C    0.016933
    45  C   -0.019207
    46  C   -0.019752
    47  C   -0.064542
    48  C    0.062274
    49  H    0.032471
    50  H    0.044027
    51  H    0.034971
    52  C   -0.042012
    53  H    0.052886
    54  C    0.093068
    55  H    0.065361
    56  H    0.060169
    57  C   -0.009277
    58  C   -0.023594
    59  H    0.050871
    60  H    0.055692
    61  Br  -0.784151
    62  H    0.021485
    63  H    0.049404
 Sum of Mulliken charges =  -0.00000
 Mulliken charges with hydrogens summed into heavy atoms:
               1
     1  Mn  -0.725270
     2  C    0.371492
     3  O   -0.068836
     4  C    0.366584
     5  O   -0.066987
     6  C    0.308102
     7  N   -0.220922
     8  C    0.024713
     9  C    0.086064
    10  C    0.156331
    13  N    0.017377
    14  C    0.001049
    15  C   -0.149119
    16  C    0.065528
    17  C    0.024447
    18  C    0.082794
    21  N   -0.222001
    22  C    0.023236
    23  C    0.088808
    25  C    0.205861
    27  C    0.213604
    30  O   -0.086111
    31  C   -0.137497
    32  C   -0.062388
    33  C   -0.034182
    34  C    0.067169
    35  C   -0.032469
    36  C    0.024730
    37  C    0.013173
    38  C    0.016581
    39  C    0.078840
    43  C    0.076164
    44  C    0.016933
    45  C    0.013264
    46  C    0.024275
    47  C   -0.029571
    48  C    0.062274
    52  C   -0.042012
    54  C    0.158429
    57  C    0.046415
    58  C    0.027277
    61  Br  -0.784151
 Electronic spatial extent (au):  <R**2>=          23038.4341
 Charge=             -0.0000 electrons
 Dipole moment (field-independent basis, Debye):
    X=             15.4840    Y=             12.7170    Z=              0.4141  Tot=             20.0412
 Quadrupole moment (field-independent basis, Debye-Ang):
   XX=           -288.1983   YY=           -249.3475   ZZ=           -220.9239
   XY=            -37.8454   XZ=             -4.2920   YZ=             -0.7279
 Traceless Quadrupole moment (field-independent basis, Debye-Ang):
   XX=            -35.3751   YY=              3.4758   ZZ=             31.8993
   XY=            -37.8454   XZ=             -4.2920   YZ=             -0.7279
 Octapole moment (field-independent basis, Debye-Ang**2):
  XXX=            340.7734  YYY=            158.5678  ZZZ=              4.4287  XYY=           -137.9071
  XXY=            140.5666  XXZ=             20.0356  XZZ=             31.3243  YZZ=             12.5544
  YYZ=             -4.7094  XYZ=             -7.1112
 Hexadecapole moment (field-independent basis, Debye-Ang**3):
 XXXX=         -15606.2824 YYYY=          -6909.4960 ZZZZ=          -5658.6858 XXXY=           -576.0190
 XXXZ=            -91.8650 YYYX=           -413.1608 YYYZ=            -23.6291 ZZZX=              5.6645
 ZZZY=              2.1398 XXYY=          -3989.5963 XXZZ=          -3338.5421 YYZZ=          -2572.9359
 XXYZ=             47.3322 YYXZ=            -52.0375 ZZXY=             45.0026
 N-N= 6.080542949808D+03 E-N=-2.499004945535D+04  KE= 5.399395254776D+03
 PrsmSu:  requested number of processors reduced to:  11 ShMem   1 Linda.
 D1PCM: PCM CHGder 1st derivatives, ID1Alg=3 FixD1E=F DoIter=F DoCFld=F I1PDM=0.
 CoulSu:  requested number of processors reduced to:  10 ShMem   1 Linda.
 CoulSu:  requested number of processors reduced to:  10 ShMem   1 Linda.
[...]
   D52       -3.07489   0.00016   0.00000   0.00468   0.00462  -3.07027
   D53       -3.04793  -0.00014   0.00000   0.00080   0.00080  -3.04714
   D54        0.07082   0.00022   0.00000   0.00120   0.00118   0.07200
   D55        2.68714  -0.00018   0.00000  -0.01501  -0.01507   2.67208
   D56        0.24807  -0.00288   0.00000  -0.00618  -0.00631   0.24176
   D57       -2.87144  -0.00263   0.00000  -0.00523  -0.00534  -2.87677
   D58       -3.08570   0.00022   0.00000   0.00209   0.00226  -3.08344
   D59       -3.13922   0.00071   0.00000   0.00285   0.00272  -3.13649
   D60        0.00889   0.00027   0.00000   0.00081   0.00070   0.00959
   D61       -0.01025   0.00028   0.00000   0.00214   0.00219  -0.00807
   D62        3.13785  -0.00016   0.00000   0.00010   0.00016   3.13801
   D63        0.00157  -0.00127   0.00000  -0.00340  -0.00325  -0.00168
   D64        3.13659  -0.00060   0.00000  -0.00240  -0.00226   3.13433
   D65       -3.12761  -0.00084   0.00000  -0.00268  -0.00270  -3.13032
   D66        0.00741  -0.00018   0.00000  -0.00169  -0.00171   0.00570
   D67       -3.13452  -0.00026   0.00000  -0.00168  -0.00169  -3.13621
   D68        0.00468  -0.00015   0.00000  -0.00098  -0.00101   0.00367
   D69        0.00048   0.00018   0.00000   0.00039   0.00037   0.00085
   D70        3.13968   0.00030   0.00000   0.00110   0.00105   3.14072
   D71       -0.84631   0.00076   0.00000  -0.01157  -0.01158  -0.85790
   D72        2.30188   0.00032   0.00000  -0.01363  -0.01363   2.28825
   D73        0.00366  -0.00011   0.00000  -0.00063  -0.00063   0.00303
   D74        3.14153   0.00006   0.00000   0.00014   0.00015  -3.14150
   D75       -3.14032   0.00001   0.00000   0.00006   0.00004  -3.14028
   D76       -0.00245   0.00017   0.00000   0.00084   0.00083  -0.00163
   D77       -0.75786  -0.00066   0.00000   0.00306   0.00319  -0.75467
   D78       -0.19013   0.00136   0.00000  -0.00571  -0.00560  -0.19572
   D79        2.39043  -0.00133   0.00000   0.00205   0.00218   2.39261
   D80        2.95816   0.00069   0.00000  -0.00672  -0.00661   2.95155
   D81        0.00102  -0.00007   0.00000   0.00007   0.00006   0.00107
   D82       -3.13964  -0.00019   0.00000  -0.00006  -0.00006  -3.13970
   D83        3.13592   0.00060   0.00000   0.00108   0.00107   3.13699
   D84       -0.00474   0.00048   0.00000   0.00095   0.00096  -0.00378
   D85        1.48625   0.00220   0.00000   0.02271   0.02262   1.50887
   D86        2.97959  -0.00071   0.00000  -0.00343  -0.00349   2.97610
   D87       -0.11429   0.00002   0.00000  -0.00385  -0.00382  -0.11812
   D88       -0.06834   0.00009   0.00000  -0.00119  -0.00122  -0.06957
   D89        3.12096   0.00082   0.00000  -0.00162  -0.00156   3.11940
   D90       -2.90109  -0.00041   0.00000   0.00330   0.00326  -2.89784
   D91        0.22909   0.00019   0.00000   0.00174   0.00178   0.23087
   D92        0.13828  -0.00106   0.00000   0.00146   0.00137   0.13964
   D93       -3.01472  -0.00047   0.00000  -0.00011  -0.00011  -3.01483
   D94       -3.12769  -0.00092   0.00000   0.00320   0.00306  -3.12463
   D95        0.02862  -0.00052   0.00000   0.00207   0.00200   0.03062
   D96        0.05900  -0.00094   0.00000  -0.00056  -0.00067   0.05834
   D97       -3.06787  -0.00054   0.00000  -0.00169  -0.00173  -3.06960
   D98       -2.06655   0.00047   0.00000  -0.02922  -0.02912  -2.09567
   D99        1.03024   0.00046   0.00000  -0.02561  -0.02553   1.00470
   D100      -0.02765   0.00090   0.00000   0.00080   0.00092  -0.02673
   D101       3.06401   0.00017   0.00000   0.00128   0.00131   3.06532
   D102      -3.12545   0.00084   0.00000  -0.00273  -0.00258  -3.12803
   D103      -0.03379   0.00012   0.00000  -0.00225  -0.00220  -0.03598
   D104       3.13568   0.00024   0.00000   0.00043   0.00043   3.13611
   D105       0.00284   0.00007   0.00000   0.00078   0.00077   0.00361
   D106      -0.02059  -0.00016   0.00000   0.00155   0.00149  -0.01910
   D107       3.12976  -0.00033   0.00000   0.00190   0.00183   3.13160
   D108      -2.98711  -0.00069   0.00000   0.00386   0.00379  -2.98332
   D109       0.14248  -0.00020   0.00000   0.00339   0.00335   0.14583
   D110       3.14022   0.00019   0.00000   0.00497   0.00491  -3.13806
   D111      -0.01338   0.00067   0.00000   0.00450   0.00447  -0.00891
   D112       0.21544  -0.00135   0.00000  -0.00759  -0.00761   0.20783
   D113      -2.93816  -0.00087   0.00000  -0.00805  -0.00805  -2.94621
   D114      -0.14527   0.00008   0.00000  -0.00272  -0.00268  -0.14795
   D115       2.97894   0.00090   0.00000  -0.00359  -0.00351   2.97542
   D116       0.01003  -0.00074   0.00000  -0.00365  -0.00363   0.00640
   D117       3.13424   0.00008   0.00000  -0.00452  -0.00446   3.12977
   D118       2.93549   0.00073   0.00000   0.00873   0.00872   2.94421
   D119      -0.22350   0.00155   0.00000   0.00786   0.00789  -0.21561
   D120      -1.61470  -0.00045   0.00000  -0.00132  -0.00141  -1.61610
   D121       1.67044  -0.00059   0.00000  -0.00096  -0.00107   1.66937
   D122       3.11693   0.00027   0.00000  -0.00111  -0.00107   3.11586
   D123      -0.04814   0.00005   0.00000   0.00081   0.00086  -0.04729
   D124      -0.07294   0.00122   0.00000   0.00878   0.00880  -0.06413
   D125       3.04518   0.00101   0.00000   0.01070   0.01073   3.05590
   D126      -3.04319  -0.00068   0.00000  -0.00401  -0.00397  -3.04717
   D127       0.07492  -0.00090   0.00000  -0.00209  -0.00205   0.07287
   D128       0.04526  -0.00013   0.00000  -0.00010  -0.00014   0.04512
   D129      -3.11828  -0.00039   0.00000   0.00136   0.00131  -3.11697
   D130      -3.04773  -0.00106   0.00000  -0.01015  -0.01015  -3.05788
   D131       0.07192  -0.00131   0.00000  -0.00869  -0.00870   0.06322
   D132      -0.07788   0.00083   0.00000   0.00278   0.00275  -0.07513
   D133       3.04177   0.00058   0.00000   0.00424   0.00419   3.04596
   D134       0.78576   0.00130   0.00000   0.00384   0.00395   0.78971
   D135      -2.40569   0.00163   0.00000   0.00451   0.00463  -2.40106
   D136      -2.33169   0.00093   0.00000   0.00344   0.00356  -2.32813
   D137       0.76004   0.00127   0.00000   0.00411   0.00424   0.76428
   D138       3.07844   0.00002   0.00000  -0.00147  -0.00150   3.07694
   D139      -0.01914   0.00018   0.00000  -0.00013  -0.00013  -0.01927
   D140      -0.01423  -0.00032   0.00000  -0.00216  -0.00220  -0.01642
   D141      -3.11182  -0.00016   0.00000  -0.00081  -0.00082  -3.11264
   D142       0.10624   0.00024   0.00000   0.00160   0.00164   0.10787
   D143      -3.02310  -0.00027   0.00000   0.00204   0.00205  -3.02105
   D144      -3.08444   0.00060   0.00000   0.00218   0.00222  -3.08221
   D145       0.06941   0.00008   0.00000   0.00261   0.00264   0.07205
   D146      -0.03562   0.00014   0.00000   0.00027   0.00029  -0.03533
   D147       3.13928   0.00010   0.00000   0.00070   0.00071   3.14000
   D148       3.06231  -0.00002   0.00000  -0.00105  -0.00105   3.06125
   D149      -0.04598  -0.00006   0.00000  -0.00062  -0.00063  -0.04661
   D150       0.02889   0.00003   0.00000   0.00097   0.00099   0.02988
   D151      -3.10619  -0.00011   0.00000   0.00045   0.00044  -3.10575
   D152       3.13671   0.00007   0.00000   0.00054   0.00056   3.13727
   D153       0.00164  -0.00007   0.00000   0.00002   0.00001   0.00165
   D154      -3.13842  -0.00039   0.00000   0.00165   0.00161  -3.13681
   D155       0.02694  -0.00023   0.00000  -0.00037  -0.00040   0.02654
   D156      -0.00320  -0.00026   0.00000   0.00216   0.00215  -0.00106
   D157      -3.12102  -0.00009   0.00000   0.00013   0.00013  -3.12089
   D158      -0.04163  -0.00010   0.00000  -0.00273  -0.00274  -0.04437
   D159       3.08844   0.00036   0.00000  -0.00318  -0.00317   3.08527
   D160       3.07722  -0.00029   0.00000  -0.00088  -0.00090   3.07632
   D161      -0.07590   0.00017   0.00000  -0.00133  -0.00133  -0.07722
   D162       0.04735   0.00024   0.00000   0.00135   0.00135   0.04871
   D163      -3.07314   0.00048   0.00000   0.00000   0.00001  -3.07312
   D164      -3.07742  -0.00054   0.00000   0.00216   0.00214  -3.07528
   D165       0.08528  -0.00031   0.00000   0.00082   0.00080   0.08607
   D166       3.08094  -0.00098   0.00000  -0.00088  -0.00093   3.08000
   D167      -0.10900  -0.00055   0.00000  -0.00098  -0.00101  -0.11001
   D168      -0.07847  -0.00011   0.00000  -0.00170  -0.00171  -0.08018
   D169       3.01477   0.00032   0.00000  -0.00179  -0.00179   3.01299
   D170       3.13308   0.00060   0.00000  -0.00126  -0.00121   3.13187
   D171      -0.00258   0.00036   0.00000  -0.00149  -0.00147  -0.00405
   D172      -0.03070   0.00039   0.00000   0.00028   0.00031  -0.03039
   D173       3.11682   0.00016   0.00000   0.00005   0.00006   3.11688
   D174      -0.03077  -0.00009   0.00000  -0.00076  -0.00077  -0.03154
   D175      -3.13830  -0.00013   0.00000  -0.00008  -0.00010  -3.13840
   D176       3.10477   0.00015   0.00000  -0.00053  -0.00051   3.10426
   D177      -0.00276   0.00011   0.00000   0.00015   0.00016  -0.00260
   D178       0.03782  -0.00022   0.00000  -0.00005  -0.00007   0.03775
   D179      -3.05717  -0.00005   0.00000   0.00060   0.00059  -3.05658
   D180      -3.13742  -0.00017   0.00000  -0.00071  -0.00072  -3.13815
   D181       0.05077  -0.00000   0.00000  -0.00006  -0.00006   0.05071
   D182       0.01737   0.00046   0.00000   0.00142   0.00145   0.01882
   D183      -3.07561   0.00000   0.00000   0.00137   0.00138  -3.07423
   D184       3.11204   0.00028   0.00000   0.00077   0.00078   3.11282
   D185       0.01905  -0.00017   0.00000   0.00072   0.00071   0.01976
   D186       2.36774  -0.00216   0.00000  -0.00323  -0.00335   2.36439
   D187      -0.78291  -0.00198   0.00000  -0.00359  -0.00370  -0.78661
   D188      -0.82338  -0.00170   0.00000  -0.00316  -0.00326  -0.82664
   D189       2.30916  -0.00152   0.00000  -0.00352  -0.00362   2.30554
   D190      -0.10592   0.00080   0.00000  -0.00137  -0.00126  -0.10718
   D191       3.04733   0.00020   0.00000   0.00023   0.00025   3.04758
   D192       3.04417   0.00065   0.00000  -0.00102  -0.00091   3.04326
   D193      -0.08576   0.00005   0.00000   0.00058   0.00060  -0.08516
   D194      -0.00652   0.00020   0.00000   0.00108   0.00110  -0.00542
   D195       3.13414   0.00033   0.00000   0.00120   0.00121   3.13535
   D196       3.13880   0.00004   0.00000   0.00031   0.00032   3.13911
   D197      -0.00373   0.00016   0.00000   0.00043   0.00043  -0.00330
         Item               Value     Threshold  Converged?
 Maximum Force            0.025167     0.000450     NO 
 RMS     Force            0.003044     0.000300     NO 
 Maximum Displacement     0.228251     0.001800     NO 
 RMS     Displacement     0.044150     0.001200     NO 
 Predicted change in Energy=-4.034891D-03
 GradGradGradGradGradGradGradGradGradGradGradGradGradGradGradGradGradGrad

 Stoichiometry    C34H21BrMnN3O3
 Framework group  C1[X(C34H21BrMnN3O3)]
 Deg. of freedom   183
 Full point group                 C1      NOp   1
 Largest Abelian subgroup         C1      NOp   1
 Largest concise Abelian subgroup C1      NOp   1
                         Standard orientation:                         
 ---------------------------------------------------------------------
 Center     Atomic      Atomic             Coordinates (Angstroms)
 Number     Number       Type             X           Y           Z
 ---------------------------------------------------------------------
      1         25           0       -1.742768   -1.862497   -0.032177
      2          6           0       -2.682214   -2.733183   -1.340540
      3          8           0       -3.184795   -3.349170   -2.165025
      4          6           0       -2.727268   -2.709244    1.269306
      5          8           0       -3.273875   -3.297409    2.085521
      6          6           0       -0.610554   -3.221490    0.001582
      7          7           0       -0.719017   -0.926976    1.531123
      8          6           0       -0.799776    0.540159    3.423336
      9          6           0        0.588244    0.633252    3.442019
     10          6           0        0.611461   -0.908094    1.624613
     11          1           0       -1.408853    1.087714    4.143410
     12          1           0        1.090658    1.280940    4.164838
     13          7           0       -1.859996    1.010751    0.019404
     14          6           0       -1.847832    2.162427    0.016125
     15          6           0       -1.861328    3.595214    0.049014
     16          6           0       -0.701386    4.319049   -0.228339
     17          6           0       -0.735825    5.712606   -0.184595
     18          6           0       -3.051115    4.251596    0.378613
     19          1           0        0.217100    3.791451   -0.479959
     20          1           0       -3.944543    3.664867    0.602376
     21          7           0       -0.705448   -0.884664   -1.541640
     22          6           0       -0.829956    0.723541   -3.307330
     23          6           0        0.559614    0.825470   -3.351840
     24          1           0       -1.466605    1.323369   -3.954849
     25          6           0       -1.414324   -0.232315    2.450309
     26          1           0       -2.503947   -0.272026    2.372713
     27          6           0       -1.419262   -0.124033   -2.385762
     28          1           0       -2.506256   -0.171682   -2.279548
     29          1           0        0.164633    6.287063   -0.404840
     30          8           0        0.077766   -4.146187    0.035691
     31          6           0        2.900485    0.161882    0.002954
     32          6           0        5.614545   -0.144520    0.001801
     33          6           0        1.330705   -0.107460    2.520205
     34          6           0        2.817080   -0.086937    2.490390
     35          6           0        3.534050   -0.193229    3.655952
     36          6           0        4.960343   -0.255003    3.652522
     37          6           0        5.651940   -0.250866    2.475894
     38          6           0        4.952645   -0.147273    1.228495
     39          6           0        3.533505   -0.016076    1.232365
     40          1           0        3.005826   -0.275004    4.609831
     41          1           0        5.489702   -0.337858    4.604717
     42          1           0        6.742813   -0.331489    2.463626
     43          6           0        3.536582    0.054036   -1.230304
     44          6           0        4.957277   -0.074769   -1.229545
     45          6           0        5.656392   -0.102947   -2.481706
     46          6           0        4.963502   -0.043130   -3.656988
     47          6           0        3.535297    0.009374   -3.659076
     48          6           0        2.816636    0.045783   -2.489856
     49          1           0        6.747574   -0.178257   -2.475416
     50          1           0        5.494757   -0.067522   -4.611899
     51          1           0        3.007634   -0.024653   -4.615721
     52          6           0        1.325124    0.014092   -2.509976
     53          1           0        1.045384    1.537449   -4.024701
     54          6           0        0.623959   -0.863794   -1.668552
     55          1           0        1.183298   -1.574391   -1.062395
     56          1           0        1.156334   -1.567584    0.950505
     57          6           0       -1.918527    6.373155    0.137856
     58          6           0       -3.073565    5.644448    0.422196
     59          1           0       -3.994835    6.165876    0.679616
     60          1           0       -1.941144    7.467512    0.170975
     61         35           0       -4.380251   -0.762740   -0.122388
     62          1           0        6.732918   -0.163429    0.009350
     63          1           0        1.825287    0.453998    0.006872
 ---------------------------------------------------------------------
 Rotational constants (GHZ):           0.0888873           0.0588447           0.0528275
 Basis read from rwf:  (5D, 7F)
 There are   802 symmetry adapted cartesian basis functions of A   symmetry.
 There are   751 symmetry adapted basis functions of A   symmetry.
   751 basis functions,  1339 primitive gaussians,   802 cartesian basis functions
   165 alpha electrons      165 beta electrons
       nuclear repulsion energy      6111.1992143839 Hartrees.
 NAtoms=   63 NActive=   63 NUniq=   63 SFac= 1.00D+00 NAtFMM=   60 NAOKFM=T Big=T
 Integral buffers will be    131072 words long.
 Raffenetti 2 integral format.
 Two-electron integral symmetry is turned on.
 Nuclear repulsion after empirical dispersion term =     6111.1333238795 Hartrees.
 ------------------------------------------------------------------------------
 Polarizable Continuum Model (PCM)
 =================================
 Model                : PCM.
 Atomic radii         : UFF (Universal Force Field).
 Polarization charges : Total charges.
 Charge compensation  : None.
 Solution method      : On-the-fly selection.
 Cavity type          : Scaled VdW (van der Waals Surface) (Alpha=1.100).
 Cavity algorithm     : GePol (No added spheres)
                        Default sphere list used, NSphG=   63.
                        Lebedev-Laikov grids with approx.  5.0 points / Ang**2.
                        Smoothing algorithm: York/Karplus (Gamma=1.0000).
                        Polarization charges: spherical gaussians, with
                                              point-specific exponents (IZeta= 3).
                        Self-potential: point-specific (ISelfS= 7).
                        Self-field    : sphere-specific E.n sum rule (ISelfD= 2).
 1st derivatives      : Analytical E(r).r(x)/FMM algorithm (CHGder, D1EAlg=3).
                        Cavity 1st derivative terms included.
 Solvent              : TetraHydroFuran, Eps=   7.425700 Eps(inf)=   1.974025
 ------------------------------------------------------------------------------
 One-electron integrals computed using PRISM.
 PrsmSu:  requested number of processors reduced to:  11 ShMem   1 Linda.
 NBasis=   751 RedAO= T EigKep=  2.23D-04  NBF=   751
 NBsUse=   751 1.00D-06 EigRej= -1.00D+00 NBFU=   751
 Initial guess from the checkpoint file:  "checkpoint.chk"
 B after Tr=    -0.000000   -0.000000    0.000000
         Rot=    0.999897    0.000561    0.000113   -0.014366 Ang=   1.65 deg.
 ExpMin= 3.93D-02 ExpMax= 2.77D+05 ExpMxC= 1.70D+04 IAcc=3 IRadAn=         5 AccDes= 0.00D+00
 Harris functional with IExCor= 4639 and IRadAn=       5 diagonalized for initial guess.
 HarFok:  IExCor= 4639 AccDes= 0.00D+00 IRadAn=         5 IDoV= 1 UseB2=F ITyADJ=14
 ICtDFT=  3500011 ScaDFX=  1.000000  1.000000  1.000000  1.000000
 FoFCou: FMM=F IPFlag=           0 FMFlag=      100000 FMFlg1=        2001
         NFxFlg=           0 DoJE=T BraDBF=F KetDBF=T FulRan=T
         wScrn=  0.000000 ICntrl=       500 IOpCl=  0 I1Cent=   200000004 NGrid=           0
         NMat0=    1 NMatS0=      1 NMatT0=    0 NMatD0=    1 NMtDS0=    0 NMtDT0=    0
 Petite list used in FoFCou.
 Requested convergence on RMS density matrix=1.00D-08 within 128 cycles.
 Requested convergence on MAX density matrix=1.00D-06.
 Requested convergence on             energy=1.00D-06.
 No special actions if energy rises.
 CoulSu:  requested number of processors reduced to:  10 ShMem   1 Linda.
 Inv3:  Mode=1 IEnd=    67090323.
 Iteration    1 A*A^-1 deviation from unit magnitude is 3.33D-15 for    760.
 Iteration    1 A*A^-1 deviation from orthogonality  is 2.33D-15 for   3026    410.
 Iteration    1 A^-1*A deviation from unit magnitude is 3.11D-15 for    760.
 Iteration    1 A^-1*A deviation from orthogonality  is 2.89D-15 for   3167    496.
 CoulSu:  requested number of processors reduced to:  10 ShMem   1 Linda.
 CoulSu:  requested number of processors reduced to:  10 ShMem   1 Linda.
