 Entering Gaussian System, Link 0=g16
 Initial command:
 /home1/apps/gaussian/16rA.03/g16/l1.exe "/tmp/Gau-187111.inp" -scrdir="/tmp/"
 Entering Link 1 = /home1/apps/gaussian/16rA.03/g16/l1.exe PID=    187113.
  
 Copyright (c) 1988,1990,1992,1993,1995,1998,2003,2009,2016,
            Gaussian, Inc.  All Rights Reserved.
  
 This is part of the Gaussian(R) 16 program.  It is based on
 the Gaussian(R) 09 system (copyright 2009, Gaussian, Inc.),
 the Gaussian(R) 03 system (copyright 2003, Gaussian, Inc.),
 the Gaussian(R) 98 system (copyright 1998, Gaussian, Inc.),
 the Gaussian(R) 94 system (copyright 1995, Gaussian, Inc.),
 the Gaussian 92(TM) system (copyright 1992, Gaussian, Inc.),
 the Gaussian 90(TM) system (copyright 1990, Gaussian, Inc.),
 the Gaussian 88(TM) system (copyright 1988, Gaussian, Inc.),
 the Gaussian 86(TM) system (copyright 1986, Carnegie Mellon
 University), and the Gaussian 82(TM) system (copyright 1983,
 Carnegie Mellon University). Gaussian is a federally registered
 trademark of Gaussian, Inc.
  
 This software contains proprietary and confidential information,
 including trade secrets, belonging to Gaussian, Inc.
  
 This software is provided under written license and may be
 used, copied, transmitted, or stored only in accord with that
 written license.
  
 The following legend is applicable only to US Government
 contracts under FAR:
  
                    RESTRICTED RIGHTS LEGEND
  
 Use, reproduction and disclosure by the US Government is
 subject to restrictions as set forth in subparagraphs (a)
 and (c) of the Commercial Computer Software - Restricted
 Rights clause in FAR 52.227-19.
  
 Gaussian, Inc.
 340 Quinnipiac St., Bldg. 40, Wallingford CT 06492
  
  
 ---------------------------------------------------------------
 Warning -- This program may not be used in any manner that
 competes with the business of Gaussian, Inc. or will provide
 assistance to any competitor of Gaussian, Inc.  The licensee
 of this program is prohibited from giving any competitor of
 Gaussian, Inc. access to this program.  By using this program,
 the user acknowledges that Gaussian, Inc. is engaged in the
 business of creating and licensing software in the field of
 computational chemistry and represents and warrants to the
 licensee that it is not a competitor of Gaussian, Inc. and that
 it will not use this program in any manner prohibited above.
 ---------------------------------------------------------------
  

 Cite this work as:
 Gaussian 16, Revision A.03,
 M. J. Frisch, G. W. Trucks, H. B. Schlegel, G. E. Scuseria, 
 M. A. Robb, J. R. Cheeseman, G. Scalmani, V. Barone, 
 G. A. Petersson, H. Nakatsuji, X. Li, M. Caricato, A. V. Marenich, 
 J. Bloino, B. G. Janesko, R. Gomperts, B. Mennucci, H. P. Hratchian, 
 J. V. Ortiz, A. F. Izmaylov, J. L. Sonnenberg, D. Williams-Young, 
 F. Ding, F. Lipparini, F. Egidi, J. Goings, B. Peng, A. Petrone, 
 T. Henderson, D. Ranasinghe, V. G. Zakrzewski, J. Gao, N. Rega, 
 G. Zheng, W. Liang, M. Hada, M. Ehara, K. Toyota, R. Fukuda, 
 J. Hasegawa, M. Ishida, T. Nakajima, Y. Honda, O. Kitao, H. Nakai, 
 T. Vreven, K. Throssell, J. A. Montgomery, Jr., J. E. Peralta, 
 F. Ogliaro, M. J. Bearpark, J. J. Heyd, E. N. Brothers, K. N. Kudin, 
 V. N. Staroverov, T. A. Keith, R. Kobayashi, J. Normand, 
 K. Raghavachari, A. P. Rendell, J. C. Burant, S. S. Iyengar, 
 J. Tomasi, M. Cossi, J. M. Millam, M. Klene, C. Adamo, R. Cammi, 
 J. W. Ochterski, R. L. Martin, K. Morokuma, O. Farkas, 
 J. B. Foresman, and D. J. Fox, Gaussian, Inc., Wallingford CT, 2016.
 
 ******************************************
 Gaussian 16:  ES64L-G16RevA.03 25-Dec-2016
                25-Dec-2022 
 ******************************************
 %RWF=myrwfile
 %NoSave
 %NProcShared=12
 Will use up to   12 processors via shared memory.
 %Chk=checkpoint.chk
 %mem=120MW
 ----------------------------------------------------------------
 # wB97XD Gen SCRF=(Solvent=TetraHydroFuran) Freq(Numer, Restart)
 ----------------------------------------------------------------
 1/35=1,38=10/6(3);
 7/8=1,25=1,44=-1/16;
 1/10=4,30=1,38=10/3;
 99//99;
 3/5=7,6=1,11=2,25=1,30=1,70=2205,71=1,72=20,74=-58,82=7/1,2,3;
 4/5=5,16=3,69=2/1;
 5/5=2,38=5,53=20,98=1/2;
 6/7=2,8=2,9=2,10=2,12=2,28=1/1;
 7/7=1/1,2,3,16;
 1/38=10/6(-5);
 7/8=1,25=1,44=-1/16;
 1/10=4,30=1,38=10/3;
 99//99;
 Restoring state from the checkpoint file "checkpoint.chk".
 ONIOM results not found on unit 2.
 Title:  TS Freq Analysis
 Route:  # wB97XD Gen SCRF=(Solvent=TetraHydroFuran) Freq(Numer)
 NDeriv=    183 NFrqRd=  0 NDerD0=      0 MskFDP=       0 MskDFD=       0 MskDF0=       0
 Re-enter D2Numr:  atom  50 IXYZ=1 step-up   number 1
 Basis read from rwf:  (5D, 7F)
   749 basis functions,  1349 primitive gaussians,   800 cartesian basis functions
   174 alpha electrons      174 beta electrons
       nuclear repulsion energy      6625.1716788819 Hartrees.
 NAtoms=   61 NActive=   61 NUniq=   61 SFac= 1.00D+00 NAtFMM=   60 NAOKFM=T Big=T
 Integral buffers will be    131072 words long.
 Raffenetti 2 integral format.
 Two-electron integral symmetry is turned off.
 Nuclear repulsion after empirical dispersion term =     6625.1022410108 Hartrees.
 ------------------------------------------------------------------------------
 Polarizable Continuum Model (PCM)
 =================================
 Model                : PCM.
 Atomic radii         : UFF (Universal Force Field).
 Polarization charges : Total charges.
 Charge compensation  : None.
 Solution method      : On-the-fly selection.
 Cavity type          : Scaled VdW (van der Waals Surface) (Alpha=1.100).
 Cavity algorithm     : GePol (No added spheres)
                        Default sphere list used, NSphG=   61.
                        Lebedev-Laikov grids with approx.  5.0 points / Ang**2.
                        Smoothing algorithm: York/Karplus (Gamma=1.0000).
                        Polarization charges: spherical gaussians, with
                                              point-specific exponents (IZeta= 3).
                        Self-potential: point-specific (ISelfS= 7).
                        Self-field    : sphere-specific E.n sum rule (ISelfD= 2).
 1st derivatives      : Analytical E(r).r(x)/FMM algorithm (CHGder, D1EAlg=3).
                        Cavity 1st derivative terms included.
 Solvent              : TetraHydroFuran, Eps=   7.425700 Eps(inf)=   1.974025
 ------------------------------------------------------------------------------
 One-electron integrals computed using PRISM.
 NBasis=   749 RedAO= T EigKep=  2.25D-04  NBF=   749
 NBsUse=   749 1.00D-06 EigRej= -1.00D+00 NBFU=   749
 Initial guess from the checkpoint file:  "checkpoint.chk"
 B after Tr=    -0.000005    0.000000   -0.000000
         Rot=    1.000000    0.000000   -0.000000   -0.000000 Ang=  -0.00 deg.
 Requested convergence on RMS density matrix=1.00D-08 within 128 cycles.
 Requested convergence on MAX density matrix=1.00D-06.
 Requested convergence on             energy=1.00D-06.
 No special actions if energy rises.
 Inv3:  Mode=1 IEnd=    68516523.
 Iteration    1 A*A^-1 deviation from unit magnitude is 3.44D-15 for   1276.
 Iteration    1 A*A^-1 deviation from orthogonality  is 2.44D-15 for   2513    957.
 Iteration    1 A^-1*A deviation from unit magnitude is 3.44D-15 for   1276.
 Iteration    1 A^-1*A deviation from orthogonality  is 5.18D-14 for   4178   4127.
 Error on total polarization charges =  0.02602
 SCF Done:  E(RwB97XD) =  -6140.23096092     A.U. after    6 cycles
            NFock=  6  Conv=0.63D-08     -V/T= 2.0038

 **********************************************************************

            Population analysis using the SCF density.

 **********************************************************************

 Alpha  occ. eigenvalues -- -482.95274-235.72055 -89.04536 -89.04091 -62.53342
 Alpha  occ. eigenvalues --  -56.33893 -56.33892 -56.33891 -27.48762 -23.54725
 Alpha  occ. eigenvalues --  -23.54308 -23.54256 -19.35890 -19.35743 -19.35553
 Alpha  occ. eigenvalues --  -14.51751 -14.51205 -14.46906 -10.43294 -10.43207
 Alpha  occ. eigenvalues --  -10.43151 -10.37940 -10.37528 -10.37465 -10.36705
 Alpha  occ. eigenvalues --  -10.36397 -10.36273 -10.36251 -10.35967 -10.35873
 Alpha  occ. eigenvalues --  -10.35784 -10.35366 -10.35316 -10.34886 -10.34818
 Alpha  occ. eigenvalues --  -10.34720 -10.34665 -10.34122 -10.33604 -10.33514
 Alpha  occ. eigenvalues --  -10.33194 -10.33154 -10.33032 -10.32998 -10.32799
 Alpha  occ. eigenvalues --  -10.32783 -10.32732 -10.32598 -10.32517 -10.32473
 Alpha  occ. eigenvalues --   -8.70110  -8.09548  -8.09237  -6.51786  -6.51784
 Alpha  occ. eigenvalues --   -6.51780  -6.05014  -6.04697  -6.04622  -6.04302
 Alpha  occ. eigenvalues --   -6.03987  -6.03671  -3.28234  -2.62295  -2.62294
 Alpha  occ. eigenvalues --   -2.62290  -2.62289  -2.62288  -2.14136  -2.13168
 Alpha  occ. eigenvalues --   -2.13036  -1.24869  -1.24718  -1.24483  -1.09363
 Alpha  occ. eigenvalues --   -1.08623  -1.02442  -1.01582  -0.99216  -0.98078
 Alpha  occ. eigenvalues --   -0.95323  -0.94128  -0.92543  -0.91840  -0.90419
 Alpha  occ. eigenvalues --   -0.88960  -0.88354  -0.86889  -0.86611  -0.85994
 Alpha  occ. eigenvalues --   -0.83388  -0.79268  -0.76915  -0.76365  -0.76235
 Alpha  occ. eigenvalues --   -0.75576  -0.74968  -0.74415  -0.72791  -0.72229
 Alpha  occ. eigenvalues --   -0.71061  -0.70412  -0.69290  -0.67525  -0.66320
 Alpha  occ. eigenvalues --   -0.66129  -0.65994  -0.65701  -0.64996  -0.62869
 Alpha  occ. eigenvalues --   -0.62404  -0.61612  -0.60465  -0.59532  -0.59414
 Alpha  occ. eigenvalues --   -0.58658  -0.58201  -0.57944  -0.57840  -0.57743
 Alpha  occ. eigenvalues --   -0.57562  -0.57459  -0.57336  -0.56434  -0.56253
 Alpha  occ. eigenvalues --   -0.55610  -0.55177  -0.55018  -0.54838  -0.54367
 Alpha  occ. eigenvalues --   -0.53777  -0.53549  -0.53262  -0.53050  -0.52989
 Alpha  occ. eigenvalues --   -0.52770  -0.52510  -0.51950  -0.51926  -0.50948
 Alpha  occ. eigenvalues --   -0.49989  -0.49574  -0.48878  -0.48693  -0.48410
 Alpha  occ. eigenvalues --   -0.47954  -0.46349  -0.46238  -0.45914  -0.45812
 Alpha  occ. eigenvalues --   -0.44849  -0.44772  -0.44034  -0.43757  -0.42954
 Alpha  occ. eigenvalues --   -0.42359  -0.41312  -0.40788  -0.40347  -0.38924
 Alpha  occ. eigenvalues --   -0.38039  -0.37431  -0.35993  -0.35739  -0.35224
 Alpha  occ. eigenvalues --   -0.34727  -0.34487  -0.34275  -0.33381  -0.31674
 Alpha  occ. eigenvalues --   -0.30543  -0.29606  -0.29565  -0.29543
 Alpha virt. eigenvalues --   -0.02508  -0.00512  -0.00122   0.00236   0.00647
 Alpha virt. eigenvalues --    0.01212   0.01913   0.02828   0.03132   0.03463
 Alpha virt. eigenvalues --    0.03689   0.04094   0.04491   0.05581   0.05819
 Alpha virt. eigenvalues --    0.08208   0.08605   0.08738   0.08856   0.09358
 Alpha virt. eigenvalues --    0.10019   0.10630   0.12160   0.12467   0.13375
 Alpha virt. eigenvalues --    0.13504   0.13894   0.14355   0.14412   0.15199
 Alpha virt. eigenvalues --    0.15847   0.15997   0.16217   0.17147   0.17577
 Alpha virt. eigenvalues --    0.18171   0.18310   0.18731   0.18902   0.19423
 Alpha virt. eigenvalues --    0.19708   0.20135   0.20949   0.21043   0.21420
 Alpha virt. eigenvalues --    0.21650   0.21886   0.22412   0.23097   0.23245
 Alpha virt. eigenvalues --    0.23581   0.23701   0.24057   0.24594   0.25250
 Alpha virt. eigenvalues --    0.25883   0.26614   0.26870   0.27641   0.28156
 Alpha virt. eigenvalues --    0.28423   0.28820   0.29450   0.30431   0.31286
 Alpha virt. eigenvalues --    0.31867   0.32096   0.32295   0.32645   0.32921
 Alpha virt. eigenvalues --    0.33234   0.33413   0.34226   0.34822   0.34831
 Alpha virt. eigenvalues --    0.35323   0.35687   0.36117   0.36476   0.36864
 Alpha virt. eigenvalues --    0.37373   0.37543   0.37880   0.38575   0.38730
 Alpha virt. eigenvalues --    0.39146   0.39446   0.39808   0.40483   0.40927
 Alpha virt. eigenvalues --    0.41549   0.42054   0.42532   0.42692   0.43283
 Alpha virt. eigenvalues --    0.44392   0.44629   0.45784   0.46291   0.46588
 Alpha virt. eigenvalues --    0.47373   0.47499   0.48000   0.48202   0.48686
 Alpha virt. eigenvalues --    0.49251   0.49425   0.49711   0.50804   0.50998
 Alpha virt. eigenvalues --    0.51072   0.51622   0.52106   0.52223   0.52655
 Alpha virt. eigenvalues --    0.53007   0.53431   0.53700   0.53916   0.54336
 Alpha virt. eigenvalues --    0.54650   0.54796   0.55074   0.55417   0.55631
 Alpha virt. eigenvalues --    0.56452   0.56670   0.56969   0.57336   0.57969
 Alpha virt. eigenvalues --    0.58473   0.58775   0.59982   0.60266   0.60495
 Alpha virt. eigenvalues --    0.60709   0.60985   0.61106   0.61984   0.62671
 Alpha virt. eigenvalues --    0.63621   0.63811   0.64164   0.64593   0.64866
 Alpha virt. eigenvalues --    0.65164   0.65318   0.65927   0.66179   0.66457
 Alpha virt. eigenvalues --    0.66592   0.67163   0.67515   0.68571   0.69031
 Alpha virt. eigenvalues --    0.69122   0.69719   0.69870   0.70715   0.70891
 Alpha virt. eigenvalues --    0.71164   0.71430   0.71634   0.71745   0.71882
 Alpha virt. eigenvalues --    0.72190   0.72496   0.72866   0.73034   0.73211
 Alpha virt. eigenvalues --    0.73610   0.73951   0.74120   0.74505   0.75107
 Alpha virt. eigenvalues --    0.75423   0.75620   0.76065   0.76351   0.76811
 Alpha virt. eigenvalues --    0.77311   0.77499   0.77682   0.77772   0.78095
 Alpha virt. eigenvalues --    0.78189   0.79063   0.79462   0.79649   0.80220
 Alpha virt. eigenvalues --    0.80395   0.80656   0.81120   0.81378   0.82178
 Alpha virt. eigenvalues --    0.82229   0.82553   0.82730   0.83165   0.83486
 Alpha virt. eigenvalues --    0.83690   0.83765   0.84155   0.84361   0.84484
 Alpha virt. eigenvalues --    0.84614   0.85256   0.85657   0.85879   0.85972
 Alpha virt. eigenvalues --    0.86056   0.86475   0.87038   0.87340   0.87460
 Alpha virt. eigenvalues --    0.87917   0.88306   0.88744   0.89196   0.89260
 Alpha virt. eigenvalues --    0.89623   0.90063   0.90497   0.90793   0.91022
 Alpha virt. eigenvalues --    0.91247   0.92241   0.92356   0.92596   0.93382
 Alpha virt. eigenvalues --    0.93831   0.94101   0.94702   0.95287   0.95859
 Alpha virt. eigenvalues --    0.96580   0.97207   0.97389   0.98976   0.99720
 Alpha virt. eigenvalues --    0.99996   1.00923   1.01637   1.02535   1.02782
 Alpha virt. eigenvalues --    1.03161   1.04268   1.05067   1.05910   1.06497
 Alpha virt. eigenvalues --    1.07189   1.07704   1.09127   1.09360   1.10365
 Alpha virt. eigenvalues --    1.11020   1.11693   1.11981   1.12274   1.13056
 Alpha virt. eigenvalues --    1.13363   1.13461   1.14562   1.15282   1.15864
 Alpha virt. eigenvalues --    1.16354   1.16548   1.17676   1.19461   1.19893
 Alpha virt. eigenvalues --    1.20158   1.21352   1.22145   1.22668   1.23512
 Alpha virt. eigenvalues --    1.23944   1.24440   1.25048   1.25724   1.26910
 Alpha virt. eigenvalues --    1.27365   1.27958   1.28110   1.28901   1.29005
 Alpha virt. eigenvalues --    1.29510   1.29621   1.29981   1.30280   1.31131
 Alpha virt. eigenvalues --    1.31904   1.32442   1.32802   1.33066   1.34343
 Alpha virt. eigenvalues --    1.34836   1.35096   1.35688   1.35925   1.36018
 Alpha virt. eigenvalues --    1.36432   1.36569   1.37066   1.37270   1.37680
 Alpha virt. eigenvalues --    1.38601   1.39206   1.39459   1.40422   1.41316
 Alpha virt. eigenvalues --    1.42247   1.44172   1.45976   1.47449   1.48016
 Alpha virt. eigenvalues --    1.48784   1.49835   1.51048   1.52913   1.54596
 Alpha virt. eigenvalues --    1.56331   1.56845   1.57912   1.58459   1.60192
 Alpha virt. eigenvalues --    1.60985   1.61520   1.62727   1.63578   1.64718
 Alpha virt. eigenvalues --    1.64817   1.65977   1.67768   1.68391   1.68788
 Alpha virt. eigenvalues --    1.69302   1.70028   1.70307   1.70857   1.71199
 Alpha virt. eigenvalues --    1.72935   1.73120   1.73305   1.73916   1.74794
 Alpha virt. eigenvalues --    1.75125   1.75664   1.76435   1.76726   1.76739
 Alpha virt. eigenvalues --    1.77164   1.77674   1.78143   1.78374   1.79133
 Alpha virt. eigenvalues --    1.79408   1.79822   1.80177   1.80363   1.80585
 Alpha virt. eigenvalues --    1.81030   1.81455   1.81730   1.82470   1.82613
 Alpha virt. eigenvalues --    1.83673   1.83913   1.84135   1.84653   1.85654
 Alpha virt. eigenvalues --    1.86011   1.86327   1.86722   1.87281   1.87629
 Alpha virt. eigenvalues --    1.88025   1.88586   1.88814   1.89013   1.89530
 Alpha virt. eigenvalues --    1.90075   1.90683   1.91019   1.91811   1.92264
 Alpha virt. eigenvalues --    1.92636   1.93486   1.93765   1.94792   1.95022
 Alpha virt. eigenvalues --    1.96312   1.97783   1.98190   1.99062   1.99678
 Alpha virt. eigenvalues --    2.00179   2.00468   2.01063   2.01644   2.01965
 Alpha virt. eigenvalues --    2.02513   2.02722   2.02897   2.03651   2.04145
 Alpha virt. eigenvalues --    2.04891   2.05291   2.06258   2.06403   2.06603
 Alpha virt. eigenvalues --    2.06731   2.07431   2.08580   2.08906   2.09921
 Alpha virt. eigenvalues --    2.10527   2.10960   2.11848   2.12124   2.12316
 Alpha virt. eigenvalues --    2.14517   2.16467   2.17311   2.17840   2.18360
 Alpha virt. eigenvalues --    2.18565   2.19162   2.19437   2.21119   2.22083
 Alpha virt. eigenvalues --    2.22458   2.23063   2.23477   2.23666   2.24744
 Alpha virt. eigenvalues --    2.26504   2.26833   2.29258   2.29645   2.30470
 Alpha virt. eigenvalues --    2.30922   2.31104   2.31518   2.31810   2.32465
 Alpha virt. eigenvalues --    2.33626   2.34271   2.35115   2.35529   2.36174
 Alpha virt. eigenvalues --    2.36723   2.37119   2.37541   2.38243   2.38472
 Alpha virt. eigenvalues --    2.38556   2.39065   2.39312   2.39551   2.40287
 Alpha virt. eigenvalues --    2.40843   2.41742   2.42260   2.43575   2.45247
 Alpha virt. eigenvalues --    2.46179   2.46945   2.48626   2.49083   2.49374
 Alpha virt. eigenvalues --    2.52483   2.53435   2.54805   2.56186   2.57973
 Alpha virt. eigenvalues --    2.59190   2.59300   2.60146   2.62457   2.64985
 Alpha virt. eigenvalues --    2.66565   2.66799   2.67534   2.68004   2.68223
 Alpha virt. eigenvalues --    2.68341   2.68506   2.68571   2.68771   2.68859
 Alpha virt. eigenvalues --    2.69024   2.69352   2.69485   2.69550   2.70847
 Alpha virt. eigenvalues --    2.72012   2.72584   2.75878   2.76337   2.77833
 Alpha virt. eigenvalues --    2.78550   2.80062   2.80284   2.81003   2.82228
 Alpha virt. eigenvalues --    2.82596   2.82729   2.83718   2.84364   2.85060
 Alpha virt. eigenvalues --    2.86375   2.86879   2.88117   2.88865   2.90966
 Alpha virt. eigenvalues --    2.92473   2.92644   2.95540   2.98096   2.98706
 Alpha virt. eigenvalues --    2.99092   3.01296   3.03022   3.03912   3.04161
 Alpha virt. eigenvalues --    3.04757   3.07152   3.08105   3.08634   3.10227
 Alpha virt. eigenvalues --    3.10518   3.14354   3.15657   3.15915   3.19064
 Alpha virt. eigenvalues --    3.19936   3.21076   3.22029   3.22628   3.22736
 Alpha virt. eigenvalues --    3.23231   3.23873   3.28566   3.28993   3.31229
 Alpha virt. eigenvalues --    3.36829   3.38740   3.39180   3.42249   3.44365
 Alpha virt. eigenvalues --    3.45736   3.49818   3.51895   3.54034   3.57086
 Alpha virt. eigenvalues --    3.58174   3.59552   3.61042   3.61543   3.61809
 Alpha virt. eigenvalues --    3.62138   3.64034   3.69391   3.70297   3.74854
 Alpha virt. eigenvalues --    3.75189   3.76146   3.76750   3.78037   3.78850
 Alpha virt. eigenvalues --    3.80302   3.90267   3.93519   4.02176   4.05725
 Electronic spatial extent (au):  <R**2>=          23960.1575
 Charge=             -0.0000 electrons
 Dipole moment (field-independent basis, Debye):
    X=             28.7832    Y=              8.4253    Z=             -0.3508  Tot=             29.9930
 Quadrupole moment (field-independent basis, Debye-Ang):
   XX=           -404.0829   YY=           -239.0105   ZZ=           -255.3086
   XY=            -38.8071   XZ=             16.4774   YZ=             21.8744
 Traceless Quadrupole moment (field-independent basis, Debye-Ang):
   XX=           -104.6156   YY=             60.4569   ZZ=             44.1587
   XY=            -38.8071   XZ=             16.4774   YZ=             21.8744
 Octapole moment (field-independent basis, Debye-Ang**2):
  XXX=            883.9795  YYY=             14.7630  ZZZ=             17.1851  XYY=             95.4443
  XXY=            342.5066  XXZ=           -130.6121  XZZ=              2.7276  YZZ=             -6.2011
  YYZ=              5.8592  XYZ=              4.4422
 Hexadecapole moment (field-independent basis, Debye-Ang**3):
 XXXX=         -22199.0292 YYYY=          -7243.4470 ZZZZ=          -5638.4509 XXXY=          -1354.5974
 XXXZ=            351.2219 YYYX=             57.5165 YYYZ=            194.4401 ZZZX=            176.5122
 ZZZY=            138.3096 XXYY=          -4373.9777 XXZZ=          -3842.4461 YYZZ=          -1954.6387
 XXYZ=            211.0982 YYXZ=            -24.1955 ZZXY=           -166.0251
 N-N= 6.625102241011D+03 E-N=-2.778700447473D+04  KE= 6.117235232082D+03
 D1PCM: PCM CHGder 1st derivatives, ID1Alg=3 FixD1E=F DoIter=F DoCFld=F I1PDM=0.
 Calling FoFJK, ICntrl=      2127 FMM=T ISym2X=0 I1Cent= 0 IOpClX= 0 NMat=1 NMatS=1 NMatT=0.
 -------------------------------------------------------------------
 Center     Atomic                   Forces (Hartrees/Bohr)
 Number     Number              X              Y              Z
 -------------------------------------------------------------------
      1       25           0.000000491   -0.000002965   -0.000019050
      2        6           0.000015304    0.000000791    0.000011157
      3        8          -0.000013324   -0.000003440   -0.000003107
      4        6          -0.000003015    0.000002261   -0.000003424
      5        8           0.000001716   -0.000000383   -0.000000503
      6        6           0.000001274   -0.000003847   -0.000003796
      7        7           0.000007440    0.000002454    0.000002838
      8        6           0.000000884   -0.000000972    0.000002717
      9        6          -0.000002671   -0.000000498   -0.000005742
     10        6           0.000001402   -0.000002974    0.000005232
     11        1           0.000001992   -0.000001687    0.000001468
     12        1          -0.000000322   -0.000000351    0.000004367
     13        7          -0.000005359    0.000009901    0.000009286
     14        6          -0.000000199    0.000001808   -0.000002499
     15        6          -0.000006340   -0.000008320   -0.000001935
     16        6           0.000002698    0.000004267    0.000003810
     17        6           0.000000448    0.000003475    0.000002089
     18        6          -0.000012902    0.000029246   -0.000006665
     19        1          -0.000001043    0.000002118    0.000001110
     20        1           0.000012477   -0.000008716    0.000011318
     21        7           0.000003081    0.000000329   -0.000006904
     22        6           0.000002608    0.000004244   -0.000003490
     23        6          -0.000000444    0.000002884   -0.000004796
     24        1          -0.000000075   -0.000014889   -0.000002259
     25        6          -0.000003951    0.000002822    0.000000776
     26        1          -0.000001836   -0.000001766    0.000000057
     27        6          -0.000000004   -0.000000727   -0.000000748
     28        1           0.000001620    0.000002910   -0.000003172
     29        1           0.000000177    0.000002801   -0.000000883
     30        8          -0.000000878   -0.000003475   -0.000000025
     31       16           0.000000260   -0.000003054   -0.000001758
     32       16           0.000000862   -0.000000529    0.000000819
     33        6          -0.000000664   -0.000000002    0.000004511
     34        6          -0.000000022   -0.000001996    0.000001332
     35        6          -0.000000760   -0.000005642    0.000005581
     36        6          -0.000000708   -0.000002669    0.000002005
     37        6          -0.000001133   -0.000003200    0.000002224
     38        6          -0.000001808   -0.000001451    0.000001427
     39        6           0.000000214    0.000004169   -0.000002555
     40        1          -0.000000747   -0.000002729    0.000002605
     41        1          -0.000000879   -0.000003844    0.000003158
     42        1          -0.000000620   -0.000003099    0.000001979
     43        6           0.000001898   -0.000003050   -0.000000154
     44        6           0.000001866    0.000002141    0.000002067
     45        6           0.000018102    0.000016538   -0.000001770
     46        6          -0.000344555   -0.000272261    0.000052259
     47        6          -0.000021243   -0.000043607    0.000000849
     48        6          -0.000006389    0.000005051    0.000005326
     49        1           0.000000315   -0.000002239   -0.000004029
     50        1           0.000353013    0.000286262   -0.000064786
     51        1           0.000002163   -0.000000242   -0.000005231
     52        6          -0.000001061   -0.000000305   -0.000001808
     53        1           0.000001627    0.000002093   -0.000002625
     54        6           0.000000563    0.000002840   -0.000003605
     55        1          -0.000000587   -0.000000094   -0.000000185
     56        1          -0.000000677   -0.000001428    0.000001083
     57        6          -0.000002148    0.000001195    0.000003677
     58        6           0.000005434    0.000003578   -0.000000398
     59        1          -0.000000768    0.000001815    0.000002977
     60        1           0.000000121    0.000002844    0.000000957
     61       35          -0.000002915    0.000005616    0.000006837
 -------------------------------------------------------------------
 Cartesian Forces:  Max     0.000353013 RMS     0.000047525
 NDeriv=    183 NFrqRd=  0 NDerD0=      0 MskFDP=       0 MskDFD=       0 MskDF0=       0
 Re-enter D2Numr:  atom  50 IXYZ=1 step-down number 1
 Basis read from rwf:  (5D, 7F)
   749 basis functions,  1349 primitive gaussians,   800 cartesian basis functions
   174 alpha electrons      174 beta electrons
       nuclear repulsion energy      6625.1617222973 Hartrees.
 NAtoms=   61 NActive=   61 NUniq=   61 SFac= 1.00D+00 NAtFMM=   60 NAOKFM=T Big=T
 Integral buffers will be    131072 words long.
 Raffenetti 2 integral format.
 Two-electron integral symmetry is turned off.
 Nuclear repulsion after empirical dispersion term =     6625.0922848692 Hartrees.
 ------------------------------------------------------------------------------
 Polarizable Continuum Model (PCM)
 =================================
 Model                : PCM.
 Atomic radii         : UFF (Universal Force Field).
 Polarization charges : Total charges.
 Charge compensation  : None.
 Solution method      : On-the-fly selection.
 Cavity type          : Scaled VdW (van der Waals Surface) (Alpha=1.100).
 Cavity algorithm     : GePol (No added spheres)
                        Default sphere list used, NSphG=   61.
                        Lebedev-Laikov grids with approx.  5.0 points / Ang**2.
                        Smoothing algorithm: York/Karplus (Gamma=1.0000).
                        Polarization charges: spherical gaussians, with
                                              point-specific exponents (IZeta= 3).
                        Self-potential: point-specific (ISelfS= 7).
                        Self-field    : sphere-specific E.n sum rule (ISelfD= 2).
 1st derivatives      : Analytical E(r).r(x)/FMM algorithm (CHGder, D1EAlg=3).
                        Cavity 1st derivative terms included.
 Solvent              : TetraHydroFuran, Eps=   7.425700 Eps(inf)=   1.974025
 ------------------------------------------------------------------------------
 One-electron integrals computed using PRISM.
 NBasis=   749 RedAO= T EigKep=  2.25D-04  NBF=   749
 NBsUse=   749 1.00D-06 EigRej= -1.00D+00 NBFU=   749
 Initial guess from the checkpoint file:  "checkpoint.chk"
 B after Tr=     0.000000    0.000005   -0.000000
         Rot=    1.000000   -0.000000   -0.000000   -0.000001 Ang=  -0.00 deg.
 Requested convergence on RMS density matrix=1.00D-08 within 128 cycles.
 Requested convergence on MAX density matrix=1.00D-06.
 Requested convergence on             energy=1.00D-06.
 No special actions if energy rises.
 Inv3:  Mode=1 IEnd=    68516523.
 Iteration    1 A*A^-1 deviation from unit magnitude is 3.22D-15 for   2419.
 Iteration    1 A*A^-1 deviation from orthogonality  is 2.66D-15 for   3404   2053.
 Iteration    1 A^-1*A deviation from unit magnitude is 3.44D-15 for   2664.
 Iteration    1 A^-1*A deviation from orthogonality  is 4.29D-14 for   4179   4127.
 Error on total polarization charges =  0.02602
 SCF Done:  E(RwB97XD) =  -6140.23096084     A.U. after    6 cycles
            NFock=  6  Conv=0.78D-08     -V/T= 2.0038

 **********************************************************************

            Population analysis using the SCF density.

 **********************************************************************

 Alpha  occ. eigenvalues -- -482.95274-235.72055 -89.04536 -89.04091 -62.53342
 Alpha  occ. eigenvalues --  -56.33893 -56.33892 -56.33891 -27.48762 -23.54725
 Alpha  occ. eigenvalues --  -23.54308 -23.54256 -19.35890 -19.35743 -19.35553
 Alpha  occ. eigenvalues --  -14.51751 -14.51205 -14.46906 -10.43294 -10.43207
 Alpha  occ. eigenvalues --  -10.43151 -10.37940 -10.37528 -10.37465 -10.36705
 Alpha  occ. eigenvalues --  -10.36398 -10.36273 -10.36251 -10.35967 -10.35873
 Alpha  occ. eigenvalues --  -10.35784 -10.35367 -10.35316 -10.34886 -10.34818
 Alpha  occ. eigenvalues --  -10.34720 -10.34665 -10.34122 -10.33604 -10.33514
 Alpha  occ. eigenvalues --  -10.33194 -10.33154 -10.33032 -10.32999 -10.32799
 Alpha  occ. eigenvalues --  -10.32783 -10.32745 -10.32598 -10.32517 -10.32473
 Alpha  occ. eigenvalues --   -8.70110  -8.09548  -8.09237  -6.51786  -6.51784
 Alpha  occ. eigenvalues --   -6.51780  -6.05015  -6.04698  -6.04622  -6.04303
 Alpha  occ. eigenvalues --   -6.03987  -6.03671  -3.28234  -2.62295  -2.62294
 Alpha  occ. eigenvalues --   -2.62290  -2.62289  -2.62288  -2.14136  -2.13168
 Alpha  occ. eigenvalues --   -2.13036  -1.24869  -1.24718  -1.24483  -1.09363
 Alpha  occ. eigenvalues --   -1.08623  -1.02442  -1.01583  -0.99217  -0.98078
 Alpha  occ. eigenvalues --   -0.95323  -0.94128  -0.92543  -0.91840  -0.90419
 Alpha  occ. eigenvalues --   -0.88960  -0.88354  -0.86888  -0.86611  -0.85994
 Alpha  occ. eigenvalues --   -0.83388  -0.79267  -0.76915  -0.76365  -0.76234
 Alpha  occ. eigenvalues --   -0.75576  -0.74968  -0.74415  -0.72789  -0.72229
 Alpha  occ. eigenvalues --   -0.71061  -0.70412  -0.69290  -0.67522  -0.66320
 Alpha  occ. eigenvalues --   -0.66129  -0.65994  -0.65700  -0.64995  -0.62867
 Alpha  occ. eigenvalues --   -0.62404  -0.61612  -0.60464  -0.59532  -0.59414
 Alpha  occ. eigenvalues --   -0.58657  -0.58200  -0.57944  -0.57840  -0.57743
 Alpha  occ. eigenvalues --   -0.57561  -0.57459  -0.57336  -0.56434  -0.56253
 Alpha  occ. eigenvalues --   -0.55610  -0.55175  -0.55018  -0.54838  -0.54367
 Alpha  occ. eigenvalues --   -0.53776  -0.53549  -0.53262  -0.53050  -0.52988
 Alpha  occ. eigenvalues --   -0.52770  -0.52510  -0.51950  -0.51926  -0.50947
 Alpha  occ. eigenvalues --   -0.49987  -0.49573  -0.48878  -0.48693  -0.48409
 Alpha  occ. eigenvalues --   -0.47953  -0.46349  -0.46238  -0.45914  -0.45811
 Alpha  occ. eigenvalues --   -0.44850  -0.44771  -0.44034  -0.43757  -0.42954
 Alpha  occ. eigenvalues --   -0.42359  -0.41312  -0.40788  -0.40347  -0.38925
 Alpha  occ. eigenvalues --   -0.38039  -0.37431  -0.35993  -0.35739  -0.35224
 Alpha  occ. eigenvalues --   -0.34727  -0.34487  -0.34275  -0.33381  -0.31675
 Alpha  occ. eigenvalues --   -0.30543  -0.29606  -0.29565  -0.29543
 Alpha virt. eigenvalues --   -0.02508  -0.00512  -0.00122   0.00236   0.00647
 Alpha virt. eigenvalues --    0.01211   0.01913   0.02828   0.03132   0.03463
 Alpha virt. eigenvalues --    0.03689   0.04094   0.04491   0.05581   0.05819
 Alpha virt. eigenvalues --    0.08208   0.08605   0.08738   0.08856   0.09358
 Alpha virt. eigenvalues --    0.10019   0.10629   0.12159   0.12467   0.13375
 Alpha virt. eigenvalues --    0.13504   0.13894   0.14354   0.14412   0.15198
 Alpha virt. eigenvalues --    0.15839   0.15997   0.16214   0.17147   0.17576
 Alpha virt. eigenvalues --    0.18171   0.18310   0.18730   0.18902   0.19422
 Alpha virt. eigenvalues --    0.19708   0.20135   0.20949   0.21042   0.21420
 Alpha virt. eigenvalues --    0.21650   0.21886   0.22411   0.23092   0.23244
 Alpha virt. eigenvalues --    0.23580   0.23700   0.24056   0.24594   0.25250
 Alpha virt. eigenvalues --    0.25882   0.26614   0.26870   0.27641   0.28156
 Alpha virt. eigenvalues --    0.28423   0.28819   0.29450   0.30431   0.31286
 Alpha virt. eigenvalues --    0.31867   0.32096   0.32295   0.32645   0.32921
 Alpha virt. eigenvalues --    0.33234   0.33413   0.34225   0.34821   0.34831
 Alpha virt. eigenvalues --    0.35322   0.35687   0.36117   0.36475   0.36864
 Alpha virt. eigenvalues --    0.37372   0.37543   0.37880   0.38575   0.38730
 Alpha virt. eigenvalues --    0.39146   0.39446   0.39808   0.40483   0.40927
 Alpha virt. eigenvalues --    0.41549   0.42054   0.42532   0.42692   0.43283
 Alpha virt. eigenvalues --    0.44392   0.44629   0.45784   0.46291   0.46588
 Alpha virt. eigenvalues --    0.47372   0.47498   0.48000   0.48201   0.48686
 Alpha virt. eigenvalues --    0.49251   0.49425   0.49711   0.50803   0.50998
 Alpha virt. eigenvalues --    0.51071   0.51622   0.52106   0.52222   0.52654
 Alpha virt. eigenvalues --    0.53007   0.53430   0.53699   0.53913   0.54335
 Alpha virt. eigenvalues --    0.54650   0.54792   0.55073   0.55417   0.55630
 Alpha virt. eigenvalues --    0.56452   0.56670   0.56969   0.57335   0.57969
 Alpha virt. eigenvalues --    0.58473   0.58774   0.59981   0.60265   0.60494
 Alpha virt. eigenvalues --    0.60709   0.60985   0.61106   0.61984   0.62670
 Alpha virt. eigenvalues --    0.63621   0.63810   0.64164   0.64593   0.64865
 Alpha virt. eigenvalues --    0.65163   0.65317   0.65927   0.66179   0.66456
 Alpha virt. eigenvalues --    0.66592   0.67162   0.67515   0.68571   0.69030
 Alpha virt. eigenvalues --    0.69122   0.69717   0.69868   0.70715   0.70891
 Alpha virt. eigenvalues --    0.71163   0.71429   0.71628   0.71745   0.71882
 Alpha virt. eigenvalues --    0.72190   0.72496   0.72865   0.73032   0.73208
 Alpha virt. eigenvalues --    0.73610   0.73948   0.74119   0.74494   0.75106
 Alpha virt. eigenvalues --    0.75416   0.75620   0.76065   0.76351   0.76811
 Alpha virt. eigenvalues --    0.77310   0.77499   0.77674   0.77772   0.78094
 Alpha virt. eigenvalues --    0.78188   0.79062   0.79462   0.79648   0.80219
 Alpha virt. eigenvalues --    0.80395   0.80655   0.81120   0.81377   0.82178
 Alpha virt. eigenvalues --    0.82229   0.82552   0.82728   0.83165   0.83486
 Alpha virt. eigenvalues --    0.83689   0.83765   0.84154   0.84360   0.84483
 Alpha virt. eigenvalues --    0.84613   0.85256   0.85656   0.85879   0.85972
 Alpha virt. eigenvalues --    0.86056   0.86474   0.87037   0.87340   0.87460
 Alpha virt. eigenvalues --    0.87917   0.88306   0.88744   0.89196   0.89260
 Alpha virt. eigenvalues --    0.89623   0.90062   0.90497   0.90792   0.91022
 Alpha virt. eigenvalues --    0.91246   0.92241   0.92356   0.92596   0.93381
 Alpha virt. eigenvalues --    0.93831   0.94101   0.94702   0.95287   0.95859
 Alpha virt. eigenvalues --    0.96580   0.97206   0.97389   0.98976   0.99719
 Alpha virt. eigenvalues --    0.99995   1.00923   1.01637   1.02535   1.02782
 Alpha virt. eigenvalues --    1.03161   1.04267   1.05067   1.05910   1.06497
 Alpha virt. eigenvalues --    1.07188   1.07704   1.09125   1.09360   1.10364
 Alpha virt. eigenvalues --    1.11020   1.11692   1.11981   1.12274   1.13056
 Alpha virt. eigenvalues --    1.13363   1.13460   1.14562   1.15282   1.15864
 Alpha virt. eigenvalues --    1.16354   1.16548   1.17676   1.19460   1.19893
 Alpha virt. eigenvalues --    1.20158   1.21352   1.22144   1.22668   1.23512
 Alpha virt. eigenvalues --    1.23944   1.24440   1.25048   1.25723   1.26910
 Alpha virt. eigenvalues --    1.27365   1.27958   1.28111   1.28900   1.29007
 Alpha virt. eigenvalues --    1.29510   1.29623   1.29980   1.30280   1.31131
 Alpha virt. eigenvalues --    1.31904   1.32440   1.32802   1.33066   1.34343
 Alpha virt. eigenvalues --    1.34836   1.35095   1.35687   1.35925   1.36018
 Alpha virt. eigenvalues --    1.36432   1.36569   1.37066   1.37270   1.37679
 Alpha virt. eigenvalues --    1.38600   1.39206   1.39459   1.40422   1.41315
 Alpha virt. eigenvalues --    1.42247   1.44172   1.45976   1.47448   1.48014
 Alpha virt. eigenvalues --    1.48782   1.49834   1.51048   1.52912   1.54596
 Alpha virt. eigenvalues --    1.56330   1.56846   1.57911   1.58459   1.60192
 Alpha virt. eigenvalues --    1.60985   1.61520   1.62727   1.63578   1.64718
 Alpha virt. eigenvalues --    1.64817   1.65979   1.67768   1.68390   1.68787
 Alpha virt. eigenvalues --    1.69302   1.70027   1.70307   1.70857   1.71199
 Alpha virt. eigenvalues --    1.72935   1.73120   1.73303   1.73914   1.74793
 Alpha virt. eigenvalues --    1.75117   1.75663   1.76438   1.76726   1.76739
 Alpha virt. eigenvalues --    1.77161   1.77673   1.78136   1.78373   1.79132
 Alpha virt. eigenvalues --    1.79406   1.79818   1.80175   1.80363   1.80581
 Alpha virt. eigenvalues --    1.81025   1.81452   1.81724   1.82464   1.82606
 Alpha virt. eigenvalues --    1.83672   1.83910   1.84134   1.84653   1.85654
 Alpha virt. eigenvalues --    1.86011   1.86326   1.86722   1.87281   1.87629
 Alpha virt. eigenvalues --    1.88025   1.88586   1.88813   1.89011   1.89529
 Alpha virt. eigenvalues --    1.90074   1.90682   1.91018   1.91810   1.92264
 Alpha virt. eigenvalues --    1.92634   1.93484   1.93764   1.94786   1.95022
 Alpha virt. eigenvalues --    1.96312   1.97780   1.98185   1.99061   1.99675
 Alpha virt. eigenvalues --    2.00178   2.00466   2.01054   2.01613   2.01959
 Alpha virt. eigenvalues --    2.02510   2.02718   2.02897   2.03648   2.04144
 Alpha virt. eigenvalues --    2.04890   2.05291   2.06258   2.06402   2.06603
 Alpha virt. eigenvalues --    2.06729   2.07430   2.08570   2.08903   2.09913
 Alpha virt. eigenvalues --    2.10527   2.10955   2.11845   2.12122   2.12311
 Alpha virt. eigenvalues --    2.14514   2.16467   2.17310   2.17838   2.18350
 Alpha virt. eigenvalues --    2.18565   2.19157   2.19437   2.21120   2.22083
 Alpha virt. eigenvalues --    2.22458   2.23063   2.23475   2.23665   2.24742
 Alpha virt. eigenvalues --    2.26500   2.26827   2.29257   2.29640   2.30460
 Alpha virt. eigenvalues --    2.30916   2.31100   2.31515   2.31808   2.32463
 Alpha virt. eigenvalues --    2.33625   2.34270   2.35113   2.35528   2.36173
 Alpha virt. eigenvalues --    2.36721   2.37116   2.37537   2.38240   2.38468
 Alpha virt. eigenvalues --    2.38556   2.39065   2.39311   2.39546   2.40283
 Alpha virt. eigenvalues --    2.40840   2.41739   2.42260   2.43575   2.45245
 Alpha virt. eigenvalues --    2.46178   2.46945   2.48624   2.49081   2.49374
 Alpha virt. eigenvalues --    2.52468   2.53428   2.54799   2.56183   2.57965
 Alpha virt. eigenvalues --    2.59190   2.59300   2.60146   2.62457   2.64985
 Alpha virt. eigenvalues --    2.66565   2.66799   2.67533   2.68003   2.68222
 Alpha virt. eigenvalues --    2.68337   2.68505   2.68569   2.68770   2.68858
 Alpha virt. eigenvalues --    2.69020   2.69352   2.69485   2.69550   2.70847
 Alpha virt. eigenvalues --    2.72004   2.72583   2.75838   2.76337   2.77821
 Alpha virt. eigenvalues --    2.78546   2.80060   2.80282   2.80999   2.82228
 Alpha virt. eigenvalues --    2.82593   2.82696   2.83699   2.84363   2.85058
 Alpha virt. eigenvalues --    2.86375   2.86875   2.88114   2.88863   2.90963
 Alpha virt. eigenvalues --    2.92465   2.92644   2.95540   2.98094   2.98705
 Alpha virt. eigenvalues --    2.99092   3.01260   3.02991   3.03897   3.04158
 Alpha virt. eigenvalues --    3.04754   3.07145   3.08105   3.08634   3.10221
 Alpha virt. eigenvalues --    3.10518   3.14344   3.15655   3.15915   3.19064
 Alpha virt. eigenvalues --    3.19936   3.21069   3.22028   3.22618   3.22730
 Alpha virt. eigenvalues --    3.23220   3.23872   3.28566   3.28993   3.31229
 Alpha virt. eigenvalues --    3.36828   3.38740   3.39179   3.42249   3.44365
 Alpha virt. eigenvalues --    3.45736   3.49818   3.51895   3.54034   3.57059
 Alpha virt. eigenvalues --    3.58159   3.59552   3.61042   3.61543   3.61809
 Alpha virt. eigenvalues --    3.62138   3.64034   3.69386   3.70297   3.74854
 Alpha virt. eigenvalues --    3.75189   3.76146   3.76750   3.78037   3.78850
 Alpha virt. eigenvalues --    3.80302   3.90267   3.93519   4.02176   4.05725
 Electronic spatial extent (au):  <R**2>=          23960.2290
 Charge=             -0.0000 electrons
 Dipole moment (field-independent basis, Debye):
    X=             28.7829    Y=              8.4249    Z=             -0.3507  Tot=             29.9926
 Quadrupole moment (field-independent basis, Debye-Ang):
   XX=           -404.0842   YY=           -239.0108   ZZ=           -255.3098
   XY=            -38.8086   XZ=             16.4777   YZ=             21.8753
 Traceless Quadrupole moment (field-independent basis, Debye-Ang):
   XX=           -104.6159   YY=             60.4575   ZZ=             44.1585
   XY=            -38.8086   XZ=             16.4777   YZ=             21.8753
 Octapole moment (field-independent basis, Debye-Ang**2):
  XXX=            883.9676  YYY=             14.7555  ZZZ=             17.1867  XYY=             95.4439
  XXY=            342.5036  XXZ=           -130.6117  XZZ=              2.7177  YZZ=             -6.2081
  YYZ=              5.8608  XYZ=              4.4445
 Hexadecapole moment (field-independent basis, Debye-Ang**3):
 XXXX=         -22199.1506 YYYY=          -7243.4992 ZZZZ=          -5638.4492 XXXY=          -1354.6065
 XXXZ=            351.2179 YYYX=             57.4903 YYYZ=            194.4516 ZZZX=            176.5217
 ZZZY=            138.3191 XXYY=          -4373.9530 XXZZ=          -3842.5097 YYZZ=          -1954.6619
 XXYZ=            211.1034 YYXZ=            -24.1931 ZZXY=           -166.0699
 N-N= 6.625092284869D+03 E-N=-2.778698305790D+04  KE= 6.117233381982D+03
 D1PCM: PCM CHGder 1st derivatives, ID1Alg=3 FixD1E=F DoIter=F DoCFld=F I1PDM=0.
 Calling FoFJK, ICntrl=      2127 FMM=T ISym2X=0 I1Cent= 0 IOpClX= 0 NMat=1 NMatS=1 NMatT=0.
 -------------------------------------------------------------------
 Center     Atomic                   Forces (Hartrees/Bohr)
 Number     Number              X              Y              Z
 -------------------------------------------------------------------
      1       25           0.000000504   -0.000003029   -0.000019001
      2        6           0.000015205    0.000000935    0.000011123
      3        8          -0.000013264   -0.000003566   -0.000003104
      4        6          -0.000003146    0.000002225   -0.000003528
      5        8           0.000001816   -0.000000351   -0.000000434
      6        6           0.000001318   -0.000003790   -0.000003950
      7        7           0.000007427    0.000002476    0.000002848
      8        6           0.000000910   -0.000000975    0.000002709
      9        6          -0.000002667   -0.000000519   -0.000005736
     10        6           0.000001407   -0.000003017    0.000005253
     11        1           0.000001998   -0.000001683    0.000001465
     12        1          -0.000000332   -0.000000340    0.000004366
     13        7          -0.000005296    0.000009906    0.000009289
     14        6          -0.000000246    0.000001836   -0.000002508
     15        6          -0.000006350   -0.000008343   -0.000001948
     16        6           0.000002693    0.000004268    0.000003795
     17        6           0.000000473    0.000003479    0.000002088
     18        6          -0.000012898    0.000029230   -0.000006672
     19        1          -0.000001046    0.000002130    0.000001141
     20        1           0.000012481   -0.000008713    0.000011328
     21        7           0.000003385    0.000000361   -0.000006651
     22        6           0.000002589    0.000004162   -0.000003515
     23        6          -0.000000323    0.000002924   -0.000004532
     24        1          -0.000000015   -0.000014908   -0.000002291
     25        6          -0.000003960    0.000002814    0.000000774
     26        1          -0.000001844   -0.000001769    0.000000060
     27        6           0.000000117   -0.000000810   -0.000000830
     28        1           0.000001687    0.000002912   -0.000003189
     29        1           0.000000187    0.000002811   -0.000000868
     30        8          -0.000000933   -0.000003510    0.000000071
     31       16           0.000000395   -0.000003134   -0.000001498
     32       16           0.000001644   -0.000000161    0.000000934
     33        6          -0.000000676    0.000000024    0.000004531
     34        6          -0.000000062   -0.000002032    0.000001366
     35        6          -0.000000680   -0.000005599    0.000005630
     36        6          -0.000000750   -0.000002650    0.000002075
     37        6          -0.000000890   -0.000003143    0.000002235
     38        6          -0.000002288   -0.000001244    0.000001192
     39        6           0.000000202    0.000004233   -0.000002585
     40        1          -0.000000731   -0.000002708    0.000002609
     41        1          -0.000000862   -0.000003821    0.000003180
     42        1          -0.000000637   -0.000003096    0.000001959
     43        6           0.000000435   -0.000004785    0.000000340
     44        6          -0.000003487    0.000004649    0.000001433
     45        6           0.000038458    0.000026365   -0.000009004
     46        6           0.000268321    0.000419100   -0.000048753
     47        6          -0.000012165   -0.000016499   -0.000001415
     48        6          -0.000003197    0.000000056    0.000001289
     49        1          -0.000000144   -0.000003871   -0.000002376
     50        1          -0.000285499   -0.000436854    0.000046113
     51        1           0.000001086   -0.000001453   -0.000003448
     52        6          -0.000001010    0.000001164   -0.000001565
     53        1           0.000001611    0.000002131   -0.000002602
     54        6           0.000000535    0.000002651   -0.000003994
     55        1          -0.000000564   -0.000000104   -0.000000271
     56        1          -0.000000658   -0.000001406    0.000001035
     57        6          -0.000002151    0.000001171    0.000003668
     58        6           0.000005433    0.000003577   -0.000000408
     59        1          -0.000000771    0.000001825    0.000002981
     60        1           0.000000122    0.000002846    0.000000963
     61       35          -0.000002898    0.000005621    0.000006834
 -------------------------------------------------------------------
 Cartesian Forces:  Max     0.000436854 RMS     0.000053874
 NDeriv=    183 NFrqRd=  0 NDerD0=      0 MskFDP=       0 MskDFD=       0 MskDF0=       0
 Re-enter D2Numr:  atom  50 IXYZ=2 step-up   number 1
 Basis read from rwf:  (5D, 7F)
   749 basis functions,  1349 primitive gaussians,   800 cartesian basis functions
   174 alpha electrons      174 beta electrons
       nuclear repulsion energy      6625.1716631261 Hartrees.
 NAtoms=   61 NActive=   61 NUniq=   61 SFac= 1.00D+00 NAtFMM=   60 NAOKFM=T Big=T
 Integral buffers will be    131072 words long.
 Raffenetti 2 integral format.
 Two-electron integral symmetry is turned off.
 Nuclear repulsion after empirical dispersion term =     6625.1022252387 Hartrees.
 ------------------------------------------------------------------------------
 Polarizable Continuum Model (PCM)
 =================================
 Model                : PCM.
 Atomic radii         : UFF (Universal Force Field).
 Polarization charges : Total charges.
 Charge compensation  : None.
 Solution method      : On-the-fly selection.
 Cavity type          : Scaled VdW (van der Waals Surface) (Alpha=1.100).
 Cavity algorithm     : GePol (No added spheres)
                        Default sphere list used, NSphG=   61.
                        Lebedev-Laikov grids with approx.  5.0 points / Ang**2.
                        Smoothing algorithm: York/Karplus (Gamma=1.0000).
                        Polarization charges: spherical gaussians, with
                                              point-specific exponents (IZeta= 3).
                        Self-potential: point-specific (ISelfS= 7).
                        Self-field    : sphere-specific E.n sum rule (ISelfD= 2).
 1st derivatives      : Analytical E(r).r(x)/FMM algorithm (CHGder, D1EAlg=3).
                        Cavity 1st derivative terms included.
 Solvent              : TetraHydroFuran, Eps=   7.425700 Eps(inf)=   1.974025
 ------------------------------------------------------------------------------
 One-electron integrals computed using PRISM.
 NBasis=   749 RedAO= T EigKep=  2.25D-04  NBF=   749
 NBsUse=   749 1.00D-06 EigRej= -1.00D+00 NBFU=   749
 Initial guess from the checkpoint file:  "checkpoint.chk"
 B after Tr=    -0.000000   -0.000005    0.000000
         Rot=    1.000000    0.000000   -0.000000    0.000001 Ang=   0.00 deg.
 Requested convergence on RMS density matrix=1.00D-08 within 128 cycles.
 Requested convergence on MAX density matrix=1.00D-06.
 Requested convergence on             energy=1.00D-06.
 No special actions if energy rises.
 Inv3:  Mode=1 IEnd=    68516523.
 Iteration    1 A*A^-1 deviation from unit magnitude is 3.89D-15 for   1269.
 Iteration    1 A*A^-1 deviation from orthogonality  is 2.25D-15 for   2110   2015.
 Iteration    1 A^-1*A deviation from unit magnitude is 3.55D-15 for     58.
 Iteration    1 A^-1*A deviation from orthogonality  is 5.58D-14 for   4179   4127.
 Error on total polarization charges =  0.02602
 SCF Done:  E(RwB97XD) =  -6140.23096084     A.U. after    6 cycles
            NFock=  6  Conv=0.43D-08     -V/T= 2.0038

 **********************************************************************

            Population analysis using the SCF density.

 **********************************************************************

 Alpha  occ. eigenvalues -- -482.95274-235.72055 -89.04536 -89.04091 -62.53342
 Alpha  occ. eigenvalues --  -56.33893 -56.33892 -56.33891 -27.48762 -23.54725
 Alpha  occ. eigenvalues --  -23.54308 -23.54256 -19.35890 -19.35743 -19.35553
 Alpha  occ. eigenvalues --  -14.51751 -14.51205 -14.46906 -10.43294 -10.43207
 Alpha  occ. eigenvalues --  -10.43151 -10.37940 -10.37528 -10.37465 -10.36705
 Alpha  occ. eigenvalues --  -10.36397 -10.36273 -10.36251 -10.35966 -10.35873
 Alpha  occ. eigenvalues --  -10.35784 -10.35367 -10.35316 -10.34886 -10.34818
 Alpha  occ. eigenvalues --  -10.34720 -10.34665 -10.34122 -10.33604 -10.33514
 Alpha  occ. eigenvalues --  -10.33194 -10.33152 -10.33032 -10.33000 -10.32798
 Alpha  occ. eigenvalues --  -10.32783 -10.32731 -10.32598 -10.32517 -10.32473
 Alpha  occ. eigenvalues --   -8.70110  -8.09548  -8.09237  -6.51786  -6.51784
 Alpha  occ. eigenvalues --   -6.51780  -6.05014  -6.04697  -6.04622  -6.04302
 Alpha  occ. eigenvalues --   -6.03987  -6.03671  -3.28234  -2.62295  -2.62294
 Alpha  occ. eigenvalues --   -2.62290  -2.62289  -2.62288  -2.14136  -2.13168
 Alpha  occ. eigenvalues --   -2.13036  -1.24869  -1.24718  -1.24483  -1.09363
 Alpha  occ. eigenvalues --   -1.08623  -1.02442  -1.01582  -0.99216  -0.98078
 Alpha  occ. eigenvalues --   -0.95323  -0.94128  -0.92543  -0.91840  -0.90419
 Alpha  occ. eigenvalues --   -0.88960  -0.88354  -0.86889  -0.86611  -0.85994
 Alpha  occ. eigenvalues --   -0.83389  -0.79267  -0.76915  -0.76365  -0.76235
 Alpha  occ. eigenvalues --   -0.75576  -0.74968  -0.74415  -0.72792  -0.72229
 Alpha  occ. eigenvalues --   -0.71061  -0.70412  -0.69290  -0.67526  -0.66320
 Alpha  occ. eigenvalues --   -0.66129  -0.65994  -0.65700  -0.64996  -0.62869
 Alpha  occ. eigenvalues --   -0.62405  -0.61612  -0.60465  -0.59532  -0.59414
 Alpha  occ. eigenvalues --   -0.58656  -0.58202  -0.57944  -0.57840  -0.57743
 Alpha  occ. eigenvalues --   -0.57562  -0.57459  -0.57336  -0.56434  -0.56253
 Alpha  occ. eigenvalues --   -0.55610  -0.55177  -0.55018  -0.54838  -0.54367
 Alpha  occ. eigenvalues --   -0.53777  -0.53549  -0.53262  -0.53050  -0.52988
 Alpha  occ. eigenvalues --   -0.52770  -0.52510  -0.51950  -0.51926  -0.50949
 Alpha  occ. eigenvalues --   -0.49990  -0.49573  -0.48878  -0.48694  -0.48410
 Alpha  occ. eigenvalues --   -0.47954  -0.46349  -0.46238  -0.45913  -0.45813
 Alpha  occ. eigenvalues --   -0.44849  -0.44771  -0.44034  -0.43757  -0.42955
 Alpha  occ. eigenvalues --   -0.42359  -0.41312  -0.40788  -0.40347  -0.38924
 Alpha  occ. eigenvalues --   -0.38039  -0.37431  -0.35993  -0.35739  -0.35224
 Alpha  occ. eigenvalues --   -0.34727  -0.34487  -0.34275  -0.33381  -0.31674
 Alpha  occ. eigenvalues --   -0.30543  -0.29606  -0.29565  -0.29543
 Alpha virt. eigenvalues --   -0.02508  -0.00512  -0.00122   0.00236   0.00647
 Alpha virt. eigenvalues --    0.01212   0.01913   0.02828   0.03132   0.03463
 Alpha virt. eigenvalues --    0.03689   0.04094   0.04491   0.05581   0.05819
 Alpha virt. eigenvalues --    0.08208   0.08605   0.08738   0.08856   0.09358
 Alpha virt. eigenvalues --    0.10019   0.10631   0.12160   0.12467   0.13375
 Alpha virt. eigenvalues --    0.13504   0.13894   0.14355   0.14412   0.15199
 Alpha virt. eigenvalues --    0.15848   0.15997   0.16218   0.17147   0.17577
 Alpha virt. eigenvalues --    0.18171   0.18310   0.18731   0.18902   0.19422
 Alpha virt. eigenvalues --    0.19709   0.20135   0.20950   0.21042   0.21420
 Alpha virt. eigenvalues --    0.21651   0.21886   0.22413   0.23098   0.23245
 Alpha virt. eigenvalues --    0.23580   0.23701   0.24057   0.24594   0.25250
 Alpha virt. eigenvalues --    0.25883   0.26614   0.26870   0.27641   0.28156
 Alpha virt. eigenvalues --    0.28423   0.28819   0.29450   0.30431   0.31286
 Alpha virt. eigenvalues --    0.31866   0.32096   0.32295   0.32645   0.32921
 Alpha virt. eigenvalues --    0.33234   0.33413   0.34226   0.34822   0.34831
 Alpha virt. eigenvalues --    0.35323   0.35687   0.36117   0.36476   0.36865
 Alpha virt. eigenvalues --    0.37373   0.37543   0.37880   0.38576   0.38730
 Alpha virt. eigenvalues --    0.39147   0.39446   0.39808   0.40482   0.40928
 Alpha virt. eigenvalues --    0.41549   0.42054   0.42531   0.42693   0.43283
 Alpha virt. eigenvalues --    0.44392   0.44629   0.45784   0.46290   0.46588
 Alpha virt. eigenvalues --    0.47373   0.47499   0.47999   0.48202   0.48686
 Alpha virt. eigenvalues --    0.49251   0.49425   0.49710   0.50804   0.50998
 Alpha virt. eigenvalues --    0.51072   0.51622   0.52106   0.52225   0.52655
 Alpha virt. eigenvalues --    0.53007   0.53431   0.53700   0.53917   0.54336
 Alpha virt. eigenvalues --    0.54650   0.54797   0.55074   0.55417   0.55631
 Alpha virt. eigenvalues --    0.56451   0.56671   0.56969   0.57336   0.57969
 Alpha virt. eigenvalues --    0.58474   0.58776   0.59982   0.60265   0.60496
 Alpha virt. eigenvalues --    0.60709   0.60985   0.61106   0.61984   0.62671
 Alpha virt. eigenvalues --    0.63621   0.63811   0.64164   0.64593   0.64867
 Alpha virt. eigenvalues --    0.65164   0.65317   0.65927   0.66179   0.66457
 Alpha virt. eigenvalues --    0.66592   0.67163   0.67516   0.68571   0.69031
 Alpha virt. eigenvalues --    0.69122   0.69720   0.69869   0.70715   0.70891
 Alpha virt. eigenvalues --    0.71163   0.71430   0.71633   0.71745   0.71882
 Alpha virt. eigenvalues --    0.72190   0.72496   0.72866   0.73034   0.73211
 Alpha virt. eigenvalues --    0.73610   0.73951   0.74120   0.74505   0.75106
 Alpha virt. eigenvalues --    0.75424   0.75620   0.76066   0.76351   0.76811
 Alpha virt. eigenvalues --    0.77311   0.77499   0.77683   0.77772   0.78095
 Alpha virt. eigenvalues --    0.78189   0.79063   0.79462   0.79649   0.80220
 Alpha virt. eigenvalues --    0.80395   0.80656   0.81120   0.81378   0.82178
 Alpha virt. eigenvalues --    0.82229   0.82553   0.82730   0.83165   0.83486
 Alpha virt. eigenvalues --    0.83690   0.83765   0.84155   0.84361   0.84484
 Alpha virt. eigenvalues --    0.84613   0.85256   0.85656   0.85879   0.85972
 Alpha virt. eigenvalues --    0.86056   0.86475   0.87038   0.87340   0.87460
 Alpha virt. eigenvalues --    0.87917   0.88306   0.88744   0.89197   0.89260
 Alpha virt. eigenvalues --    0.89623   0.90063   0.90497   0.90793   0.91022
 Alpha virt. eigenvalues --    0.91247   0.92242   0.92356   0.92596   0.93381
 Alpha virt. eigenvalues --    0.93831   0.94101   0.94703   0.95287   0.95859
 Alpha virt. eigenvalues --    0.96580   0.97206   0.97389   0.98976   0.99720
 Alpha virt. eigenvalues --    0.99996   1.00923   1.01637   1.02535   1.02782
 Alpha virt. eigenvalues --    1.03161   1.04267   1.05067   1.05911   1.06498
 Alpha virt. eigenvalues --    1.07188   1.07704   1.09126   1.09360   1.10365
 Alpha virt. eigenvalues --    1.11020   1.11693   1.11981   1.12274   1.13056
 Alpha virt. eigenvalues --    1.13363   1.13460   1.14562   1.15282   1.15864
 Alpha virt. eigenvalues --    1.16354   1.16548   1.17676   1.19461   1.19893
 Alpha virt. eigenvalues --    1.20160   1.21353   1.22146   1.22669   1.23512
 Alpha virt. eigenvalues --    1.23945   1.24440   1.25048   1.25724   1.26910
 Alpha virt. eigenvalues --    1.27365   1.27958   1.28113   1.28901   1.29007
 Alpha virt. eigenvalues --    1.29509   1.29624   1.29979   1.30280   1.31132
 Alpha virt. eigenvalues --    1.31904   1.32440   1.32802   1.33065   1.34342
 Alpha virt. eigenvalues --    1.34837   1.35096   1.35687   1.35925   1.36018
 Alpha virt. eigenvalues --    1.36432   1.36569   1.37066   1.37270   1.37679
 Alpha virt. eigenvalues --    1.38601   1.39207   1.39459   1.40422   1.41316
 Alpha virt. eigenvalues --    1.42247   1.44172   1.45976   1.47449   1.48015
 Alpha virt. eigenvalues --    1.48785   1.49834   1.51049   1.52914   1.54597
 Alpha virt. eigenvalues --    1.56330   1.56845   1.57911   1.58460   1.60191
 Alpha virt. eigenvalues --    1.60985   1.61520   1.62728   1.63578   1.64718
 Alpha virt. eigenvalues --    1.64817   1.65979   1.67769   1.68392   1.68788
 Alpha virt. eigenvalues --    1.69302   1.70028   1.70307   1.70857   1.71199
 Alpha virt. eigenvalues --    1.72935   1.73120   1.73303   1.73916   1.74794
 Alpha virt. eigenvalues --    1.75127   1.75664   1.76437   1.76726   1.76738
 Alpha virt. eigenvalues --    1.77164   1.77675   1.78143   1.78376   1.79132
 Alpha virt. eigenvalues --    1.79408   1.79825   1.80177   1.80364   1.80586
 Alpha virt. eigenvalues --    1.81030   1.81456   1.81731   1.82469   1.82613
 Alpha virt. eigenvalues --    1.83674   1.83914   1.84135   1.84653   1.85653
 Alpha virt. eigenvalues --    1.86012   1.86325   1.86723   1.87279   1.87629
 Alpha virt. eigenvalues --    1.88025   1.88587   1.88802   1.89013   1.89533
 Alpha virt. eigenvalues --    1.90075   1.90683   1.91022   1.91812   1.92263
 Alpha virt. eigenvalues --    1.92636   1.93487   1.93758   1.94787   1.95021
 Alpha virt. eigenvalues --    1.96313   1.97784   1.98192   1.99061   1.99679
 Alpha virt. eigenvalues --    2.00180   2.00471   2.01067   2.01650   2.01966
 Alpha virt. eigenvalues --    2.02513   2.02718   2.02899   2.03651   2.04145
 Alpha virt. eigenvalues --    2.04890   2.05292   2.06258   2.06402   2.06604
 Alpha virt. eigenvalues --    2.06730   2.07431   2.08578   2.08906   2.09927
 Alpha virt. eigenvalues --    2.10528   2.10960   2.11850   2.12124   2.12319
 Alpha virt. eigenvalues --    2.14516   2.16467   2.17311   2.17839   2.18358
 Alpha virt. eigenvalues --    2.18565   2.19162   2.19437   2.21120   2.22083
 Alpha virt. eigenvalues --    2.22458   2.23063   2.23475   2.23667   2.24744
 Alpha virt. eigenvalues --    2.26503   2.26836   2.29258   2.29646   2.30472
 Alpha virt. eigenvalues --    2.30922   2.31105   2.31521   2.31810   2.32466
 Alpha virt. eigenvalues --    2.33627   2.34271   2.35115   2.35529   2.36175
 Alpha virt. eigenvalues --    2.36723   2.37120   2.37542   2.38242   2.38473
 Alpha virt. eigenvalues --    2.38557   2.39065   2.39311   2.39554   2.40288
 Alpha virt. eigenvalues --    2.40844   2.41743   2.42260   2.43575   2.45245
 Alpha virt. eigenvalues --    2.46179   2.46945   2.48626   2.49081   2.49374
 Alpha virt. eigenvalues --    2.52485   2.53435   2.54804   2.56185   2.57974
 Alpha virt. eigenvalues --    2.59190   2.59300   2.60147   2.62458   2.64985
 Alpha virt. eigenvalues --    2.66565   2.66800   2.67533   2.68004   2.68222
 Alpha virt. eigenvalues --    2.68341   2.68506   2.68571   2.68771   2.68859
 Alpha virt. eigenvalues --    2.69025   2.69352   2.69486   2.69550   2.70847
 Alpha virt. eigenvalues --    2.72011   2.72584   2.75882   2.76337   2.77833
 Alpha virt. eigenvalues --    2.78551   2.80062   2.80284   2.81003   2.82228
 Alpha virt. eigenvalues --    2.82596   2.82730   2.83719   2.84364   2.85059
 Alpha virt. eigenvalues --    2.86375   2.86877   2.88118   2.88865   2.90967
 Alpha virt. eigenvalues --    2.92472   2.92644   2.95540   2.98095   2.98706
 Alpha virt. eigenvalues --    2.99092   3.01297   3.03018   3.03921   3.04164
 Alpha virt. eigenvalues --    3.04758   3.07157   3.08105   3.08634   3.10228
 Alpha virt. eigenvalues --    3.10518   3.14349   3.15656   3.15915   3.19064
 Alpha virt. eigenvalues --    3.19936   3.21077   3.22029   3.22628   3.22737
 Alpha virt. eigenvalues --    3.23233   3.23873   3.28566   3.28993   3.31229
 Alpha virt. eigenvalues --    3.36829   3.38740   3.39180   3.42249   3.44365
 Alpha virt. eigenvalues --    3.45736   3.49818   3.51895   3.54034   3.57088
 Alpha virt. eigenvalues --    3.58174   3.59552   3.61042   3.61543   3.61809
 Alpha virt. eigenvalues --    3.62138   3.64034   3.69391   3.70297   3.74854
 Alpha virt. eigenvalues --    3.75189   3.76146   3.76750   3.78037   3.78850
 Alpha virt. eigenvalues --    3.80302   3.90267   3.93519   4.02176   4.05725
 Electronic spatial extent (au):  <R**2>=          23960.1718
 Charge=             -0.0000 electrons
 Dipole moment (field-independent basis, Debye):
    X=             28.7837    Y=              8.4250    Z=             -0.3507  Tot=             29.9934
 Quadrupole moment (field-independent basis, Debye-Ang):
   XX=           -404.0745   YY=           -239.0156   ZZ=           -255.3085
   XY=            -38.8073   XZ=             16.4773   YZ=             21.8746
 Traceless Quadrupole moment (field-independent basis, Debye-Ang):
   XX=           -104.6083   YY=             60.4506   ZZ=             44.1577
   XY=            -38.8073   XZ=             16.4773   YZ=             21.8746
 Octapole moment (field-independent basis, Debye-Ang**2):
  XXX=            884.0636  YYY=             14.7347  ZZZ=             17.1858  XYY=             95.4208
  XXY=            342.5246  XXZ=           -130.6150  XZZ=              2.7274  YZZ=             -6.1991
  YYZ=              5.8625  XYZ=              4.4417
 Hexadecapole moment (field-independent basis, Debye-Ang**3):
 XXXX=         -22198.3161 YYYY=          -7243.5927 ZZZZ=          -5638.4511 XXXY=          -1354.3613
 XXXZ=            351.1898 YYYX=             57.3641 YYYZ=            194.4514 ZZZX=            176.5144
 ZZZY=            138.3078 XXYY=          -4374.0461 XXZZ=          -3842.4494 YYZZ=          -1954.6330
 XXYZ=            211.0873 YYXZ=            -24.1861 ZZXY=           -166.0187
 N-N= 6.625102225239D+03 E-N=-2.778700456330D+04  KE= 6.117235355287D+03
 D1PCM: PCM CHGder 1st derivatives, ID1Alg=3 FixD1E=F DoIter=F DoCFld=F I1PDM=0.
 Calling FoFJK, ICntrl=      2127 FMM=T ISym2X=0 I1Cent= 0 IOpClX= 0 NMat=1 NMatS=1 NMatT=0.
 -------------------------------------------------------------------
 Center     Atomic                   Forces (Hartrees/Bohr)
 Number     Number              X              Y              Z
 -------------------------------------------------------------------
      1       25           0.000000425   -0.000003020   -0.000019068
      2        6           0.000015332    0.000000816    0.000011137
      3        8          -0.000013349   -0.000003416   -0.000003104
      4        6          -0.000003045    0.000002286   -0.000003442
      5        8           0.000001716   -0.000000396   -0.000000504
      6        6           0.000001309   -0.000003882   -0.000003813
      7        7           0.000007410    0.000002476    0.000002858
      8        6           0.000000873   -0.000000960    0.000002717
      9        6          -0.000002685   -0.000000481   -0.000005745
     10        6           0.000001370   -0.000002979    0.000005248
     11        1           0.000001988   -0.000001687    0.000001469
     12        1          -0.000000316   -0.000000348    0.000004363
     13        7          -0.000005307    0.000009918    0.000009292
     14        6          -0.000000220    0.000001814   -0.000002503
     15        6          -0.000006351   -0.000008329   -0.000001938
     16        6           0.000002705    0.000004258    0.000003804
     17        6           0.000000449    0.000003480    0.000002089
     18        6          -0.000012903    0.000029241   -0.000006663
     19        1          -0.000001044    0.000002119    0.000001130
     20        1           0.000012478   -0.000008715    0.000011317
     21        7           0.000003401    0.000000207   -0.000006648
     22        6           0.000002567    0.000004175   -0.000003461
     23        6          -0.000000382    0.000002738   -0.000004616
     24        1          -0.000000033   -0.000014895   -0.000002279
     25        6          -0.000003963    0.000002819    0.000000777
     26        1          -0.000001824   -0.000001774    0.000000055
     27        6           0.000000117   -0.000000776   -0.000000784
     28        1           0.000001650    0.000002926   -0.000003185
     29        1           0.000000178    0.000002803   -0.000000880
     30        8          -0.000000880   -0.000003466   -0.000000046
     31       16           0.000000221   -0.000003018   -0.000001357
     32       16          -0.000000771   -0.000001980    0.000000519
     33        6          -0.000000621   -0.000000017    0.000004473
     34        6          -0.000000058   -0.000001983    0.000001332
     35        6          -0.000000896   -0.000005664    0.000005599
     36        6          -0.000000612   -0.000002591    0.000001949
     37        6          -0.000001462   -0.000003341    0.000002062
     38        6          -0.000001331   -0.000002047    0.000002073
     39        6           0.000000350    0.000004182   -0.000002812
     40        1          -0.000000759   -0.000002727    0.000002606
     41        1          -0.000000897   -0.000003870    0.000003144
     42        1          -0.000000608   -0.000003115    0.000002026
     43        6           0.000003991   -0.000005246   -0.000000249
     44        6           0.000003720   -0.000008310   -0.000004306
     45        6          -0.000038549   -0.000030017    0.000007876
     46        6          -0.000272722   -0.000423011    0.000046653
     47        6           0.000015390    0.000016294   -0.000007726
     48        6           0.000003892    0.000002989   -0.000002682
     49        1           0.000000174    0.000000068   -0.000000602
     50        1           0.000288486    0.000435272   -0.000052910
     51        1           0.000000593    0.000000472   -0.000001912
     52        6          -0.000000142    0.000002446   -0.000001669
     53        1           0.000001591    0.000002143   -0.000002651
     54        6           0.000000892    0.000002559   -0.000003957
     55        1          -0.000000579   -0.000000045   -0.000000176
     56        1          -0.000000673   -0.000001451    0.000001067
     57        6          -0.000002154    0.000001190    0.000003676
     58        6           0.000005433    0.000003582   -0.000000392
     59        1          -0.000000768    0.000001819    0.000002976
     60        1           0.000000119    0.000002845    0.000000955
     61       35          -0.000002914    0.000005619    0.000006839
 -------------------------------------------------------------------
 Cartesian Forces:  Max     0.000435272 RMS     0.000054223
 NDeriv=    183 NFrqRd=  0 NDerD0=      0 MskFDP=       0 MskDFD=       0 MskDF0=       0
 Re-enter D2Numr:  atom  50 IXYZ=2 step-down number 1
 Basis read from rwf:  (5D, 7F)
   749 basis functions,  1349 primitive gaussians,   800 cartesian basis functions
   174 alpha electrons      174 beta electrons
       nuclear repulsion energy      6625.1674305132 Hartrees.
 NAtoms=   61 NActive=   61 NUniq=   61 SFac= 1.00D+00 NAtFMM=   60 NAOKFM=T Big=T
 Integral buffers will be    131072 words long.
 Raffenetti 2 integral format.
 Two-electron integral symmetry is turned off.
 Nuclear repulsion after empirical dispersion term =     6625.0979928161 Hartrees.
 ------------------------------------------------------------------------------
 Polarizable Continuum Model (PCM)
 =================================
 Model                : PCM.
 Atomic radii         : UFF (Universal Force Field).
 Polarization charges : Total charges.
 Charge compensation  : None.
 Solution method      : On-the-fly selection.
 Cavity type          : Scaled VdW (van der Waals Surface) (Alpha=1.100).
 Cavity algorithm     : GePol (No added spheres)
                        Default sphere list used, NSphG=   61.
                        Lebedev-Laikov grids with approx.  5.0 points / Ang**2.
                        Smoothing algorithm: York/Karplus (Gamma=1.0000).
                        Polarization charges: spherical gaussians, with
                                              point-specific exponents (IZeta= 3).
                        Self-potential: point-specific (ISelfS= 7).
                        Self-field    : sphere-specific E.n sum rule (ISelfD= 2).
 1st derivatives      : Analytical E(r).r(x)/FMM algorithm (CHGder, D1EAlg=3).
                        Cavity 1st derivative terms included.
 Solvent              : TetraHydroFuran, Eps=   7.425700 Eps(inf)=   1.974025
 ------------------------------------------------------------------------------
 One-electron integrals computed using PRISM.
 NBasis=   749 RedAO= T EigKep=  2.25D-04  NBF=   749
 NBsUse=   749 1.00D-06 EigRej= -1.00D+00 NBFU=   749
 Initial guess from the checkpoint file:  "checkpoint.chk"
 B after Tr=    -0.000000   -0.000000    0.000005
         Rot=    1.000000   -0.000001    0.000001   -0.000000 Ang=  -0.00 deg.
 Requested convergence on RMS density matrix=1.00D-08 within 128 cycles.
 Requested convergence on MAX density matrix=1.00D-06.
 Requested convergence on             energy=1.00D-06.
 No special actions if energy rises.
 Inv3:  Mode=1 IEnd=    68516523.
 Iteration    1 A*A^-1 deviation from unit magnitude is 4.00D-15 for   3827.
 Iteration    1 A*A^-1 deviation from orthogonality  is 2.78D-15 for   3827    493.
 Iteration    1 A^-1*A deviation from unit magnitude is 3.44D-15 for   2619.
 Iteration    1 A^-1*A deviation from orthogonality  is 9.65D-14 for   4177   4127.
 Error on total polarization charges =  0.02602
 SCF Done:  E(RwB97XD) =  -6140.23096119     A.U. after    5 cycles
            NFock=  5  Conv=0.57D-08     -V/T= 2.0038

 **********************************************************************

            Population analysis using the SCF density.

 **********************************************************************

 Alpha  occ. eigenvalues -- -482.95274-235.72055 -89.04536 -89.04091 -62.53342
 Alpha  occ. eigenvalues --  -56.33893 -56.33892 -56.33891 -27.48762 -23.54726
 Alpha  occ. eigenvalues --  -23.54308 -23.54256 -19.35890 -19.35743 -19.35553
 Alpha  occ. eigenvalues --  -14.51751 -14.51205 -14.46906 -10.43294 -10.43207
 Alpha  occ. eigenvalues --  -10.43151 -10.37940 -10.37528 -10.37465 -10.36705
 Alpha  occ. eigenvalues --  -10.36397 -10.36273 -10.36251 -10.35967 -10.35873
 Alpha  occ. eigenvalues --  -10.35784 -10.35367 -10.35316 -10.34886 -10.34818
 Alpha  occ. eigenvalues --  -10.34720 -10.34665 -10.34122 -10.33604 -10.33514
 Alpha  occ. eigenvalues --  -10.33194 -10.33153 -10.33032 -10.32999 -10.32798
 Alpha  occ. eigenvalues --  -10.32783 -10.32737 -10.32598 -10.32517 -10.32473
 Alpha  occ. eigenvalues --   -8.70110  -8.09548  -8.09237  -6.51786  -6.51784
 Alpha  occ. eigenvalues --   -6.51780  -6.05014  -6.04697  -6.04622  -6.04302
 Alpha  occ. eigenvalues --   -6.03987  -6.03671  -3.28234  -2.62295  -2.62294
 Alpha  occ. eigenvalues --   -2.62290  -2.62289  -2.62288  -2.14137  -2.13168
 Alpha  occ. eigenvalues --   -2.13036  -1.24869  -1.24718  -1.24483  -1.09363
 Alpha  occ. eigenvalues --   -1.08623  -1.02442  -1.01582  -0.99216  -0.98078
 Alpha  occ. eigenvalues --   -0.95323  -0.94128  -0.92543  -0.91840  -0.90419
 Alpha  occ. eigenvalues --   -0.88960  -0.88354  -0.86889  -0.86611  -0.85994
 Alpha  occ. eigenvalues --   -0.83388  -0.79267  -0.76915  -0.76365  -0.76235
 Alpha  occ. eigenvalues --   -0.75576  -0.74968  -0.74415  -0.72791  -0.72229
 Alpha  occ. eigenvalues --   -0.71061  -0.70412  -0.69290  -0.67524  -0.66320
 Alpha  occ. eigenvalues --   -0.66129  -0.65994  -0.65700  -0.64995  -0.62868
 Alpha  occ. eigenvalues --   -0.62405  -0.61612  -0.60464  -0.59532  -0.59414
 Alpha  occ. eigenvalues --   -0.58657  -0.58201  -0.57944  -0.57840  -0.57743
 Alpha  occ. eigenvalues --   -0.57562  -0.57459  -0.57336  -0.56434  -0.56253
 Alpha  occ. eigenvalues --   -0.55610  -0.55176  -0.55018  -0.54838  -0.54367
 Alpha  occ. eigenvalues --   -0.53777  -0.53549  -0.53262  -0.53050  -0.52988
 Alpha  occ. eigenvalues --   -0.52770  -0.52511  -0.51950  -0.51926  -0.50947
 Alpha  occ. eigenvalues --   -0.49988  -0.49574  -0.48878  -0.48694  -0.48409
 Alpha  occ. eigenvalues --   -0.47953  -0.46349  -0.46238  -0.45914  -0.45812
 Alpha  occ. eigenvalues --   -0.44849  -0.44772  -0.44034  -0.43757  -0.42955
 Alpha  occ. eigenvalues --   -0.42359  -0.41312  -0.40788  -0.40347  -0.38925
 Alpha  occ. eigenvalues --   -0.38039  -0.37431  -0.35993  -0.35739  -0.35224
 Alpha  occ. eigenvalues --   -0.34727  -0.34487  -0.34275  -0.33381  -0.31674
 Alpha  occ. eigenvalues --   -0.30543  -0.29606  -0.29565  -0.29543
 Alpha virt. eigenvalues --   -0.02508  -0.00512  -0.00122   0.00236   0.00647
 Alpha virt. eigenvalues --    0.01212   0.01913   0.02828   0.03132   0.03463
 Alpha virt. eigenvalues --    0.03689   0.04094   0.04491   0.05581   0.05819
 Alpha virt. eigenvalues --    0.08208   0.08605   0.08738   0.08856   0.09358
 Alpha virt. eigenvalues --    0.10019   0.10630   0.12159   0.12467   0.13375
 Alpha virt. eigenvalues --    0.13504   0.13894   0.14354   0.14412   0.15198
 Alpha virt. eigenvalues --    0.15844   0.15997   0.16217   0.17147   0.17578
 Alpha virt. eigenvalues --    0.18171   0.18310   0.18731   0.18902   0.19422
 Alpha virt. eigenvalues --    0.19709   0.20135   0.20949   0.21042   0.21420
 Alpha virt. eigenvalues --    0.21650   0.21886   0.22412   0.23095   0.23245
 Alpha virt. eigenvalues --    0.23581   0.23701   0.24056   0.24594   0.25250
 Alpha virt. eigenvalues --    0.25882   0.26614   0.26870   0.27641   0.28156
 Alpha virt. eigenvalues --    0.28423   0.28819   0.29450   0.30431   0.31286
 Alpha virt. eigenvalues --    0.31867   0.32096   0.32295   0.32645   0.32921
 Alpha virt. eigenvalues --    0.33234   0.33413   0.34225   0.34821   0.34831
 Alpha virt. eigenvalues --    0.35322   0.35687   0.36117   0.36476   0.36864
 Alpha virt. eigenvalues --    0.37373   0.37543   0.37880   0.38575   0.38730
 Alpha virt. eigenvalues --    0.39146   0.39446   0.39808   0.40483   0.40927
 Alpha virt. eigenvalues --    0.41549   0.42054   0.42532   0.42692   0.43283
 Alpha virt. eigenvalues --    0.44392   0.44629   0.45784   0.46290   0.46588
 Alpha virt. eigenvalues --    0.47373   0.47499   0.48000   0.48202   0.48686
 Alpha virt. eigenvalues --    0.49251   0.49425   0.49711   0.50804   0.50998
 Alpha virt. eigenvalues --    0.51072   0.51622   0.52106   0.52223   0.52655
 Alpha virt. eigenvalues --    0.53007   0.53431   0.53700   0.53914   0.54336
 Alpha virt. eigenvalues --    0.54650   0.54795   0.55074   0.55417   0.55630
 Alpha virt. eigenvalues --    0.56452   0.56670   0.56969   0.57336   0.57969
 Alpha virt. eigenvalues --    0.58474   0.58775   0.59982   0.60265   0.60495
 Alpha virt. eigenvalues --    0.60709   0.60985   0.61106   0.61984   0.62671
 Alpha virt. eigenvalues --    0.63621   0.63810   0.64164   0.64593   0.64866
 Alpha virt. eigenvalues --    0.65164   0.65317   0.65927   0.66179   0.66456
 Alpha virt. eigenvalues --    0.66592   0.67163   0.67515   0.68571   0.69031
 Alpha virt. eigenvalues --    0.69122   0.69718   0.69869   0.70715   0.70891
 Alpha virt. eigenvalues --    0.71163   0.71430   0.71631   0.71745   0.71883
 Alpha virt. eigenvalues --    0.72190   0.72496   0.72866   0.73034   0.73209
 Alpha virt. eigenvalues --    0.73610   0.73949   0.74120   0.74501   0.75107
 Alpha virt. eigenvalues --    0.75420   0.75620   0.76065   0.76351   0.76811
 Alpha virt. eigenvalues --    0.77311   0.77499   0.77678   0.77772   0.78095
 Alpha virt. eigenvalues --    0.78189   0.79063   0.79462   0.79649   0.80220
 Alpha virt. eigenvalues --    0.80395   0.80656   0.81120   0.81378   0.82178
 Alpha virt. eigenvalues --    0.82229   0.82553   0.82729   0.83165   0.83486
 Alpha virt. eigenvalues --    0.83690   0.83765   0.84155   0.84360   0.84484
 Alpha virt. eigenvalues --    0.84613   0.85256   0.85656   0.85879   0.85972
 Alpha virt. eigenvalues --    0.86056   0.86475   0.87037   0.87340   0.87460
 Alpha virt. eigenvalues --    0.87917   0.88306   0.88744   0.89196   0.89260
 Alpha virt. eigenvalues --    0.89623   0.90063   0.90497   0.90792   0.91022
 Alpha virt. eigenvalues --    0.91247   0.92241   0.92356   0.92596   0.93381
 Alpha virt. eigenvalues --    0.93831   0.94100   0.94702   0.95287   0.95859
 Alpha virt. eigenvalues --    0.96580   0.97206   0.97389   0.98976   0.99719
 Alpha virt. eigenvalues --    0.99996   1.00923   1.01637   1.02535   1.02782
 Alpha virt. eigenvalues --    1.03161   1.04267   1.05067   1.05910   1.06497
 Alpha virt. eigenvalues --    1.07188   1.07704   1.09126   1.09360   1.10365
 Alpha virt. eigenvalues --    1.11020   1.11693   1.11982   1.12274   1.13056
 Alpha virt. eigenvalues --    1.13363   1.13460   1.14563   1.15282   1.15864
 Alpha virt. eigenvalues --    1.16354   1.16548   1.17676   1.19460   1.19893
 Alpha virt. eigenvalues --    1.20161   1.21353   1.22143   1.22668   1.23513
 Alpha virt. eigenvalues --    1.23944   1.24440   1.25048   1.25723   1.26909
 Alpha virt. eigenvalues --    1.27363   1.27959   1.28118   1.28895   1.29012
 Alpha virt. eigenvalues --    1.29508   1.29631   1.29977   1.30279   1.31131
 Alpha virt. eigenvalues --    1.31904   1.32438   1.32801   1.33066   1.34343
 Alpha virt. eigenvalues --    1.34837   1.35096   1.35687   1.35925   1.36018
 Alpha virt. eigenvalues --    1.36432   1.36569   1.37066   1.37270   1.37677
 Alpha virt. eigenvalues --    1.38600   1.39207   1.39460   1.40423   1.41315
 Alpha virt. eigenvalues --    1.42247   1.44172   1.45976   1.47448   1.48014
 Alpha virt. eigenvalues --    1.48785   1.49833   1.51050   1.52916   1.54599
 Alpha virt. eigenvalues --    1.56326   1.56845   1.57909   1.58459   1.60192
 Alpha virt. eigenvalues --    1.60985   1.61520   1.62727   1.63578   1.64718
[...]
 48,0.00000170,-0.00000185,0.00000337,0.00000220,0.00000140,0.00000038,
 -0.00000058,-0.00000033,0.00000073,0.00000086,0.00000021,-0.00000014,0
 .00000081,0.00000015,0.00000504,-0.00000474,0.00000143,0.00000195,0.00
 000177,0.00000115,-0.00001326,0.00000310,-0.00000559,0.00000163,0.0000
 0154,-0.00000247,-0.00000010,-0.00000469,-0.00000220,0.00713274,-0.022
 38272,0.00304107,-0.05954555,0.03590516,0.00284800,0.05581076,-0.00001
 484,0.00001809,0.00007380,0.00001383,-0.00002135,-0.00000241,-0.000015
 51,0.00003349,0.00000007,0.00000478,0.00000578,0.00000742,-0.00001647,
 -0.00000788,0.00000906,0.00000138,0.00000353,-0.00002113,-0.00003198,0
 .00002729,-0.00002198,0.00000269,0.00000056,-0.00003913,0.00003449,-0.
 00004597,-0.00001774,0.00003397,-0.00003021,0.00001080,-0.00000279,-0.
 00000691,0.00000412,0.00001004,0.00002256,-0.00002111,0.00026262,-0.00
 014552,-0.00019396,-0.00032501,-0.00017247,0.00030525,0.00236508,0.001
 15955,-0.00005986,-0.00036121,0.00061451,-0.00010683,-0.00193611,0.000
 37380,0.00233386,-0.00160792,-0.00755203,0.00314206,-0.00005440,-0.000
 05718,-0.00014511,-0.00053259,0.00049110,-0.00070142,-0.00000979,-0.00
 001907,-0.00002011,-0.00001845,0.00000201,-0.00001840,0.00001057,-0.00
 000015,0.00000063,-0.00000045,0.00000459,-0.00000093,-0.00000109,0.000
 01097,0.00000534,-0.00000555,-0.00000516,0.00000555,0.00000111,0.00000
 245,0.00000427,0.00000491,0.00000906,0.00000127,0.00021111,-0.00055598
 ,-0.00000260,0.00001316,0.00000421,0.00002722,0.00004889,0.00001867,0.
 00003029,0.00000173,0.00000365,0.00000192,0.00000083,0.00001540,0.0000
 1216,0.00000454,0.00000966,-0.00001455,-0.00000273,0.00001499,-0.00000
 597,-0.00000214,0.00000683,-0.00000408,-0.00000483,0.00000559,-0.00000
 171,-0.00002166,0.00001197,-0.00001720,-0.00001270,-0.00004481,0.00000
 409,0.00000025,-0.00000234,-0.00000016,-0.00000204,-0.00000429,0.00000
 259,0.00000310,-0.00000049,-0.00000069,-0.00003306,0.00000360,0.000006
 02,0.00000859,-0.00001478,0.00000692,-0.00000416,0.00000903,-0.0000022
 5,0.00000079,-0.00000205,0.00000107,-0.00000021,0.00001089,-0.00000622
 ,0.00001549,0.00000676,0.00000159,-0.00000286,-0.00000067,-0.00000085,
 -0.00000275,-0.00000120,0.00000011,0.00000084,0.00000030,0.00000142,0.
 00001925,0.00000082,0.00000137,0.00000344,0.00000415,-0.00000074,-0.00
 001052,-0.00000183,0.00001537,0.00000287,0.00000050,-0.00000379,-0.000
 00251,-0.00000210,-0.00000117,0.00522229,-0.00946880,0.00004911,0.0361
 8315,-0.34102403,0.04039617,-0.03921346,0.35590439,-0.00001060,0.00002
 926,0.00003305,0.00002708,-0.00005408,0.00000251,-0.00002375,0.0000513
 5,-0.00000234,0.00002851,-0.00000205,-0.00002147,-0.00002792,-0.000008
 40,0.00001893,-0.00001179,-0.00002620,-0.00003692,-0.00001265,0.000033
 91,-0.00000863,-0.00000322,0.00003051,-0.00002212,0.00002962,-0.000045
 21,0.00000967,0.00001389,-0.00002244,0.00000571,0.00000234,-0.00000649
 ,0.00000167,0.00000106,0.00004137,-0.00002246,0.00005635,-0.00000855,-
 0.00024209,0.00021220,-0.00045185,0.00051469,0.00440794,0.00016035,0.0
 0498142,-0.00001936,-0.00018850,-0.00087759,0.00496540,0.00206783,0.00
 433625,0.00201381,-0.01125167,0.00543076,-0.00046236,-0.00013927,-0.00
 073832,-0.00214535,-0.00059372,-0.00321320,0.00000559,-0.00000504,-0.0
 0001069,-0.00001328,-0.00000317,-0.00000493,0.00000705,-0.00000712,-0.
 00000302,0.00000049,0.00000136,-0.00000103,0.00000793,0.00000024,-0.00
 001683,0.00000475,0.00000071,0.00000661,0.00000259,-0.00000849,0.00000
 816,0.00000473,0.00000321,0.00000099,-0.00015056,0.00061635,-0.0000981
 0,0.00001940,0.00001320,0.00003623,0.00005018,0.00001386,0.00001374,-0
 .00000203,0.00000478,-0.00000207,-0.00002135,0.00001929,0.00001925,-0.
 00000015,0.00000372,-0.00000423,0.00000773,0.00001487,-0.00000226,-0.0
 0000170,0.00000292,-0.00000027,0.00000017,0.00000316,0.00000085,-0.000
 01833,-0.00000556,0.00000297,-0.00000161,-0.00000087,0.00000199,0.0000
 0008,-0.00000269,-0.00000398,0.00000085,-0.00000157,-0.00000096,0.0000
 0061,-0.00000093,-0.00000113,-0.00003998,-0.00001605,0.00002323,0.0000
 0918,0.00000463,0.00000426,-0.00000233,0.00000352,-0.00000278,0.000003
 36,0.00000356,0.00000076,-0.00000263,0.00000400,-0.00000435,0.00001886
 ,0.00000555,0.00000177,0.00000102,-0.00000022,0.00000023,0.00000027,0.
 00000118,0.00000055,0.00000074,0.00000249,-0.00000014,0.00000699,-0.00
 000204,0.00000353,0.00000088,-0.00000165,-0.00000019,-0.00001495,0.000
 00130,0.00000709,0.,-0.00000081,-0.00000693,-0.00000214,-0.00000053,-0
 .00000243,-0.00221909,0.01463630,0.00282820,0.00252336,0.04030392,-0.0
 4928926,-0.00710730,-0.04426346,0.03943152,-0.00000671,-0.00000991,-0.
 00001469,0.00001328,-0.00002251,-0.00000618,-0.00000563,0.00001119,0.0
 0000101,0.00002151,0.00000374,-0.00001344,-0.00001030,-0.00000288,0.00
 000676,0.00000026,-0.00000569,-0.00001816,0.00000174,-0.00000862,0.000
 00895,0.00001273,-0.00000076,0.00002053,-0.00001933,0.00001737,-0.0000
 0608,0.00000330,-0.00000277,-0.00000907,0.00000986,0.00000996,-0.00000
 594,-0.00000102,0.00000312,-0.00000331,-0.00008080,0.00009299,0.000165
 70,-0.00009004,-0.00017476,-0.00059753,0.00023727,-0.00068836,-0.00040
 783,0.00275686,0.00078306,0.00226051,0.00203579,-0.00186284,0.00207805
 ,-0.00018475,-0.00246095,0.00443062,-0.00009339,-0.00013972,-0.0000367
 6,-0.00063019,0.00056141,0.00009945,0.00001317,0.00000871,0.00000384,0
 .00001222,-0.00000384,0.00001113,-0.00000861,-0.00000594,0.00000595,0.
 00000053,-0.00000336,0.00000075,0.00000652,-0.00000867,-0.00000077,0.0
 0000710,0.00000437,-0.00000157,0.00000721,-0.00000511,0.00000152,-0.00
 000298,-0.00000136,-0.00000024,-0.00044871,-0.00033896,-0.00189138,0.0
 0000040,0.00000129,0.00000544,-0.00001489,0.00000010,-0.00000829,0.000
 00076,0.00000124,0.00000490,-0.00001985,0.00000554,-0.00000155,-0.0000
 0978,-0.00000136,-0.00000190,0.00000414,-0.00000013,-0.00000147,0.0000
 0023,-0.00000335,0.00000102,0.00000474,-0.00000370,0.00000300,0.000004
 18,-0.00000613,0.00001029,0.00000553,0.00001919,-0.00000177,-0.0000008
 6,0.00000103,-0.00000036,0.00000122,0.00000041,0.00000066,0.00000090,0
 .00000004,0.00000077,0.00000255,-0.00001637,0.00001186,0.00000330,0.00
 001331,0.00000040,0.00000369,-0.00000127,0.00000109,0.00000024,0.00000
 291,-0.00000028,0.00000166,-0.00000496,0.00000101,-0.00000435,0.000002
 53,-0.00000116,0.00000102,0.00000029,-0.00000064,0.00000071,-0.0000002
 5,-0.00000030,-0.00000023,-0.00000046,-0.00000065,-0.00001474,0.000003
 93,-0.00000335,-0.00000125,-0.00000303,0.00000008,-0.00000167,-0.00000
 278,-0.00000810,-0.00000291,-0.00000052,-0.00000220,-0.00000154,0.0000
 0036,-0.00000141,-0.25508745,0.10983032,0.08728970,-0.01096553,0.01222
 992,0.00597494,-0.00013832,-0.00026693,-0.00206129,0.26276921,-0.00001
 452,-0.00001081,0.00002736,0.00001148,-0.00001828,-0.00001034,-0.00001
 168,0.00002429,0.00000135,0.00000774,0.00001121,0.00000064,-0.00001377
 ,-0.00000775,0.00000765,-0.00000091,0.00000978,-0.00002353,-0.00000231
 ,0.00000355,-0.00000814,-0.00000240,0.00000111,0.00000146,-0.00000505,
 0.00000696,0.00000032,0.00000386,0.00000339,0.00000073,0.00000290,0.00
 000353,-0.00000242,-0.00000102,-0.00000025,0.00000155,0.00008705,-0.00
 004960,0.00000062,-0.00017109,0.00008797,-0.00018756,-0.00066868,-0.00
 070525,0.00033498,0.00060944,-0.00509718,0.00228321,0.02567049,-0.0071
 5415,-0.01074073,-0.00221900,-0.00102892,0.00284350,0.00113023,-0.0003
 9665,-0.00055189,-0.00070499,0.00040544,0.00024480,-0.00000481,-0.0000
 0340,-0.00001609,-0.00001745,-0.00000575,-0.00002936,0.00003124,0.0000
 0005,-0.00000909,-0.00000119,0.00001341,-0.00000177,-0.00000224,-0.000
 00624,0.00000366,0.00000360,-0.00000351,0.00000201,-0.00002556,-0.0000
 1664,0.00001957,0.00000515,0.00000241,0.00000248,-0.00059780,0.0009605
 9,-0.00076234,0.00001088,0.00000157,0.00002444,0.00003274,0.00003460,0
 .00006026,-0.00000059,0.00000307,0.00001126,-0.00000023,-0.00000303,0.
 00000315,0.00000203,-0.00000131,0.00000226,-0.00000502,-0.00000216,-0.
 00000027,0.00000187,-0.00000265,0.00000090,-0.00000688,-0.00000112,0.0
 0000039,0.00001363,0.00001501,-0.00001062,-0.00002665,0.00000031,-0.00
 001060,-0.00000089,0.00000012,0.00000187,-0.00000059,-0.00000111,0.000
 00234,0.00000110,0.00000147,0.,-0.00000673,-0.00000696,-0.00000418,-0.
 00000471,-0.00000537,-0.00000150,-0.00000840,0.00000026,0.00000163,-0.
 00000302,-0.00000173,0.00000231,-0.00000128,0.00000375,-0.00000188,0.0
 0001450,-0.00000252,0.00000756,-0.00000091,-0.00000047,-0.00000303,-0.
 00000113,-0.00000071,-0.00000194,0.00000141,0.00000113,-0.00000132,0.0
 0002696,-0.00000982,0.00000602,0.00000520,0.00000184,0.00000130,-0.000
 01266,0.00000301,0.00000861,0.00000202,0.00000146,-0.00000312,0.000000
 39,-0.00000330,-0.00000047,0.10982842,-0.11827875,-0.04108598,-0.01531
 506,0.01135725,0.00670949,-0.00003879,0.00052405,-0.00095476,-0.117615
 26,0.11941255,-0.00002200,0.00002781,0.00002250,0.00002697,-0.00005120
 ,0.00000154,-0.00002574,0.00005607,-0.00000328,0.00004064,0.00000732,-
 0.00002807,-0.00004375,-0.00001571,0.00002863,-0.00001062,-0.00002532,
 -0.00005112,-0.00000322,-0.00000258,-0.00001711,-0.00000837,0.00000316
 ,-0.00002883,0.00002566,-0.00001115,0.00000239,-0.00001016,0.00000969,
 -0.00000373,-0.00000705,-0.00000727,0.00000593,0.00000452,0.00000021,0
 .00000202,0.00015566,0.00000333,0.00014457,-0.00061157,-0.00017554,-0.
 00093756,-0.00040219,0.00034612,-0.00065963,0.00245129,0.00217262,0.00
 578593,-0.00352429,0.00360641,0.00641874,0.00448539,0.00288868,0.00465
 422,-0.00029723,0.00012501,-0.00006848,0.00035006,-0.00042183,-0.00031
 514,0.00000214,-0.00000808,-0.00001162,-0.00001097,-0.00000784,-0.0000
 0895,0.00000885,-0.00000373,0.00000557,-0.00000052,0.00000196,-0.00000
 021,-0.00000693,0.00002578,0.00000032,0.00000493,-0.00000328,0.0000061
 4,-0.00001052,-0.00000862,0.00000758,0.00000776,0.00000136,0.00000248,
 -0.00185484,-0.00091276,-0.00311287,0.00002693,0.00001682,0.00005368,0
 .00005974,0.00004965,0.00015109,-0.00000191,0.00001109,0.00002292,0.00
 001758,-0.00000953,0.00000334,0.00001743,-0.00000385,0.00000778,-0.000
 00404,-0.00000041,-0.00000076,-0.00000062,-0.00000023,0.00000286,-0.00
 001041,0.00000535,-0.00000043,0.00000497,0.00000939,-0.00000536,-0.000
 01684,0.00002252,-0.00001774,-0.00000059,-0.00000303,0.00000098,-0.000
 00059,-0.00000203,-0.00000047,0.00000019,-0.00000147,-0.00000290,-0.00
 004394,-0.00001327,-0.00000047,0.00000708,-0.00001889,0.00000864,-0.00
 000949,0.00000494,-0.00000094,0.00000251,0.00000394,0.00000034,-0.0000
 0094,0.00000513,-0.00000468,0.00001362,0.00000378,0.00000444,0.0000003
 3,-0.00000172,-0.00000086,0.00000061,0.00000166,-0.00000017,-0.0000000
 2,0.00000299,-0.00000025,0.00001545,0.00000382,-0.00000276,0.00000249,
 -0.00000056,0.00000124,-0.00001867,-0.00000495,0.00000292,0.00000279,0
 .00000258,-0.00000710,-0.00000169,-0.00000744,-0.00000356,0.08721468,-
 0.04107029,-0.07887849,0.01149868,-0.00763239,0.00100072,-0.00212414,-
 0.00078749,-0.00303970,-0.09733042,0.04183877,0.06895284,0.00000903,0.
 00027498,-0.00035885,-0.00029402,0.00087979,0.00013906,0.00025609,-0.0
 0059796,-0.00002933,-0.00039839,0.00057650,0.00060542,-0.00010643,-0.0
 0060810,-0.00012488,0.00030049,0.00003612,0.00058771,-0.00172154,0.000
 11943,-0.00059609,-0.00126963,0.00018410,-0.00027684,0.00058015,0.0001
 0515,0.00022001,-0.00062979,0.00010156,-0.00021043,-0.00070672,0.00053
 242,-0.00006465,-0.00013079,0.00005652,-0.00001140,-0.00297376,-0.0013
 1916,0.00024532,0.00015187,-0.00010183,-0.00018822,0.00002408,0.000086
 42,-0.00003121,0.00000710,0.00006500,-0.00000757,-0.00001188,-0.000000
 79,0.00001300,0.00003613,0.00001899,0.00000833,0.00000622,-0.00000838,
 -0.00001218,0.00005280,-0.00006531,-0.00008320,-0.00006507,-0.00003802
 ,0.00007370,-0.00000198,-0.00000422,0.00000315,-0.00001380,0.00000784,
 -0.00001013,-0.00000426,-0.00000036,0.00000822,-0.00211448,-0.00241602
 ,-0.00086632,-0.00023493,0.00052003,0.00065384,-0.00003870,0.00004510,
 -0.00003743,-0.00000527,0.00002999,-0.00001557,-0.00001659,-0.00000152
 ,0.00000594,-0.00020589,-0.00004171,-0.00036750,-0.00002281,-0.0000603
 7,0.00001175,-0.00001419,-0.00002015,0.00000870,-0.00014233,-0.0005925
 0,-0.00020659,0.00022402,-0.00007014,0.00004132,-0.00016209,-0.0000334
 2,0.00000111,0.00000771,0.00002305,0.00000289,-0.00006378,-0.00000990,
 -0.00000476,0.00001068,0.00003194,-0.00001965,-0.00008034,0.00008551,-
 0.00007530,0.00002148,-0.00001680,0.00002231,-0.00001970,0.00001041,-0
 .00001203,-0.00000907,-0.00000370,-0.00000305,0.00003425,0.00010084,0.
 00002418,-0.00004585,-0.00002516,-0.00001907,-0.00000046,-0.00000533,-
 0.00000339,-0.00001121,-0.00001316,-0.00000002,-0.00000723,0.00000333,
 -0.00000177,-0.00000606,-0.00002284,0.00000856,-0.00000450,0.00000010,
 -0.00000235,-0.00000489,-0.00000469,-0.00000237,0.00000315,-0.00000475
 ,0.00000097,-0.00000010,-0.00002203,0.00005152,-0.00000510,0.00000038,
 0.00000309,0.00007100,-0.00000917,-0.00002217,0.00004256,0.00004759,0.
 00001028,-0.00016714,0.00001547,-0.00006569,-0.00001078,0.00002324,-0.
 00000233,-0.00004058,-0.00004295,0.00004292,-0.00000206,0.00000897,-0.
 00000582,-0.00001605,0.00000186,0.00000399,0.00995221,0.00009202,-0.00
 008519,-0.00022155,-0.00027556,0.00008353,-0.00006798,0.00010929,-0.00
 011196,0.00000371,0.00095293,0.00050488,0.00017391,-0.00121286,-0.0014
 1717,-0.00061930,0.00008752,0.00037447,0.00060199,-0.00028495,0.000108
 34,-0.00011279,-0.00052623,-0.00010132,-0.00021778,0.00013209,0.000318
 85,0.00009773,-0.00002955,-0.00001304,-0.00001807,0.00075422,-0.000235
 72,0.00009472,-0.00007495,0.00001805,-0.00001397,-0.00144063,-0.001908
 23,0.00039449,0.00006299,-0.00001645,-0.00005076,0.00001210,0.00003412
 ,-0.00002007,0.00001479,0.00004215,-0.00001825,-0.00001346,0.00002192,
 0.00000354,-0.00004264,-0.00003594,0.00004273,0.00000887,-0.00000170,-
 0.00001336,-0.00001919,-0.00002622,-0.00001376,-0.00009412,0.00007265,
 0.00009199,-0.00003622,-0.00000580,0.00000273,0.00000242,0.00000107,0.
 00000982,0.00000141,-0.00000241,-0.00000243,-0.00040979,-0.00000966,-0
 .00016993,0.00025355,-0.00163825,0.00003856,0.00000588,0.00002353,-0.0
 0003925,0.00000609,0.00001990,-0.00000906,-0.00000597,0.00000082,0.000
 00062,-0.00015334,-0.00015481,-0.00040231,-0.00000015,-0.00000615,-0.0
 0000655,-0.00000018,0.00000930,0.00000017,0.00000517,-0.00008497,-0.00
 001821,0.00004367,0.00001774,-0.00000031,-0.00003269,-0.00001247,0.000
 00530,0.00000497,0.00001214,-0.00000135,-0.00001259,0.00000406,0.00000
 461,-0.00000512,0.00000198,0.00000196,0.00000236,0.00000141,-0.0000061
 5,-0.00000111,-0.00000945,-0.00000193,-0.00000738,0.00000315,-0.000004
 29,-0.00000356,0.00000260,0.00000200,-0.00001653,0.00000791,0.00000646
 ,-0.00000519,-0.00001279,-0.00000487,-0.00000933,-0.00000533,-0.000002
 61,-0.00000403,-0.00000110,0.00000180,-0.00000715,0.00001143,-0.000004
 68,0.00002202,0.00000741,0.00001015,-0.00000284,-0.00000122,-0.0000015
 5,-0.00000081,-0.00000044,0.00000031,0.00000456,-0.00000043,0.00000153
 ,0.00000432,-0.00000336,0.00001485,0.00000055,0.00000296,0.00000042,0.
 00002005,-0.00002240,0.00004005,0.00001698,0.00001009,-0.00000853,-0.0
 0003281,-0.00000191,-0.00001658,-0.00001654,0.00000015,0.00001082,0.00
 000967,0.00000124,0.00000649,-0.00001289,0.00001170,0.00000656,-0.0000
 0395,0.00000214,0.00000423,0.00216948,0.00419167,0.00014455,0.00003969
 ,-0.00017036,-0.00022433,0.00053505,0.00003382,0.00015131,-0.00035504,
 -0.00000551,0.00084548,0.00079981,-0.00065381,-0.00074078,-0.00117819,
 -0.00082642,-0.00024925,-0.00019547,0.00061229,-0.00050306,0.00001405,
 -0.00003479,-0.00036505,0.00001792,-0.00003587,0.00019800,0.00009138,0
 .00006654,-0.00016243,0.00008015,-0.00018199,-0.00006064,0.00006832,-0
 .00024958,-0.00004429,0.00000993,0.00000228,0.00073183,0.00070211,-0.0
 0053724,-0.00001682,0.00002267,-0.00002629,-0.00002536,-0.00002984,-0.
 00000417,-0.00000426,-0.00001901,0.00001703,0.00001162,-0.00000404,0.0
 0000395,0.00001051,0.00001145,0.00002242,-0.00000879,-0.00000280,-0.00
 000995,-0.00004177,0.00000701,-0.00005802,0.00002687,0.00003915,0.0001
 8455,0.00001130,-0.00000914,0.00001404,-0.00002583,0.00000660,-0.00000
 483,-0.00000997,-0.00000856,0.00000449,-0.00087109,-0.00085890,0.00075
 638,0.00036019,-0.00004597,-0.00104814,-0.00009591,0.00002335,-0.00001
 747,-0.00000048,-0.00000585,-0.00002352,0.00000406,0.00000074,-0.00000
 358,0.00001278,0.00003764,-0.00029697,-0.00002200,-0.00002724,-0.00000
 267,-0.00000364,-0.00001068,0.00000581,-0.00001569,-0.00018478,-0.0000
 6523,0.00008356,-0.00001075,0.00001117,-0.00003987,-0.00000353,-0.0000
 0440,-0.00000364,0.00000261,0.00000832,-0.00001776,0.00000334,-0.00000
 425,-0.00000776,0.00001138,-0.00000992,-0.00002592,0.00003528,-0.00002
 282,0.00000791,-0.00001480,0.00000567,-0.00000278,0.00000004,-0.000004
 75,-0.00000158,-0.00000158,-0.00000033,0.00000306,0.00001092,0.0000116
 1,-0.00000728,-0.00000793,0.00000191,0.00000187,0.00001010,0.00000052,
 -0.00000224,-0.00000414,0.00000257,-0.00000474,-0.00000166,0.00000123,
 0.00000145,0.00000642,0.00000327,0.00000002,0.00000039,0.00000092,-0.0
 0000262,-0.00000240,0.00000076,0.00000092,-0.00000142,-0.00000115,-0.0
 0001244,-0.00002412,0.00004112,-0.00000101,0.00000174,-0.00000163,0.00
 006704,-0.00001329,-0.00000670,0.00002741,0.00001166,-0.00000516,-0.00
 003516,0.00000935,-0.00003700,0.00000242,-0.00000424,-0.00000042,0.000
 01694,0.00000773,0.00000993,-0.00000518,-0.00000290,-0.00000972,0.0000
 0229,-0.00000082,-0.00000385,0.00094132,0.00041092,0.00254572\\0.00000
 053,-0.00000301,0.00001897,0.00001524,0.00000105,-0.00001106,-0.000013
 28,-0.00000364,0.00000309,-0.00000313,0.00000222,0.00000351,0.00000182
 ,-0.00000034,0.00000042,0.00000129,-0.00000390,0.00000401,0.00000736,0
 .00000248,-0.00000285,0.00000083,-0.00000092,-0.00000272,-0.00000267,-
 0.00000049,0.00000574,0.00000139,-0.00000298,-0.00000525,0.00000200,-0
 .00000169,-0.00000147,-0.00000031,-0.00000037,-0.00000437,-0.00000535,
 0.00000994,-0.00000927,-0.00000020,0.00000181,0.00000249,-0.00000637,-
 0.00000833,0.00000195,0.00000271,0.00000426,-0.00000380,0.00000048,0.0
 0000346,-0.00000209,-0.00001289,0.00002922,0.00000667,-0.00000105,0.00
 000214,-0.00000114,0.00001247,-0.00000872,-0.00001132,0.00000333,0.000
 00026,0.00000672,0.00000254,0.00000417,0.00000349,-0.00000034,0.000002
 81,0.00000461,-0.00000003,-0.00001490,0.00000228,-0.00000400,0.0000027
 4,-0.00000080,-0.00000181,-0.00000177,-0.00000005,0.00000011,-0.000000
 71,0.00000068,0.00000165,0.00000292,0.00000319,0.00000018,0.00000281,0
 .00000087,-0.00000092,-0.00000348,-0.00000010,0.00000032,-0.00000307,0
 .00000144,0.00000047,-0.00000108,-0.00000074,-0.00000060,-0.00000002,-
 0.00000448,-0.00000002,-0.00000196,-0.00000140,-0.00000072,-0.00000567
 ,-0.00000557,-0.00000072,-0.00000263,-0.00000200,-0.00000120,-0.000003
 24,-0.00000215,-0.00000181,-0.00000166,-0.00000161,0.00000023,0.000004
 20,0.00000270,-0.00000075,-0.00000272,-0.00000261,-0.00000089,-0.00000
 383,-0.00000318,-0.00000062,-0.00000310,-0.00000199,0.00000220,-0.0000
 0496,-0.00000006,0.00000011,-0.00000179,0.00000143,-0.00000004,-0.0000
 0184,0.00000056,-0.00000141,-0.00000131,0.00000119,0.00000165,-0.00000
 011,0.00000458,0.00000031,0.00000141,0.00000069,0.00000002,-0.00000190
 ,0.00000149,0.00000068,-0.00000141,0.00000325,0.00000084,-0.00000048,0
 .00000268,-0.00000057,0.00000182,0.00000161,0.00000161,0.00000214,0.00
 000262,0.00000083,0.00000259,0.00000398,-0.00000058,-0.00000008,0.0000
 0024,-0.00000065,-0.00000141,-0.00000104,-0.00000215,0.00000118,-0.000
 00367,0.00000545,0.00000358,0.00000039,-0.00000077,0.00000182,-0.00000
 298,0.00000011,0.00000285,-0.00000095,-0.00000291,0.00000562,-0.000006
 84\\\@


 ONE THORN OF EXPERIENCE IS WORTH A WHOLE WILDERNESS OF
 WARNING....  LOWELL - AMONG MY BOOKS
 Job cpu time:      17 days  7 hours 16 minutes 16.4 seconds.
 Elapsed time:       1 days 11 hours 18 minutes 44.5 seconds.
 File lengths (MBytes):  RWF=    919 Int=      0 D2E=      0 Chk=    114 Scr=      1
 Normal termination of Gaussian 16 at Tue Dec 27 03:52:14 2022.
