 Entering Gaussian System, Link 0=g16
 Initial command:
 /home1/apps/gaussian/16rA.03/g16/l1.exe "/tmp/Gau-196171.inp" -scrdir="/tmp/"
 Entering Link 1 = /home1/apps/gaussian/16rA.03/g16/l1.exe PID=    196175.
  
 Copyright (c) 1988,1990,1992,1993,1995,1998,2003,2009,2016,
            Gaussian, Inc.  All Rights Reserved.
  
 This is part of the Gaussian(R) 16 program.  It is based on
 the Gaussian(R) 09 system (copyright 2009, Gaussian, Inc.),
 the Gaussian(R) 03 system (copyright 2003, Gaussian, Inc.),
 the Gaussian(R) 98 system (copyright 1998, Gaussian, Inc.),
 the Gaussian(R) 94 system (copyright 1995, Gaussian, Inc.),
 the Gaussian 92(TM) system (copyright 1992, Gaussian, Inc.),
 the Gaussian 90(TM) system (copyright 1990, Gaussian, Inc.),
 the Gaussian 88(TM) system (copyright 1988, Gaussian, Inc.),
 the Gaussian 86(TM) system (copyright 1986, Carnegie Mellon
 University), and the Gaussian 82(TM) system (copyright 1983,
 Carnegie Mellon University). Gaussian is a federally registered
 trademark of Gaussian, Inc.
  
 This software contains proprietary and confidential information,
 including trade secrets, belonging to Gaussian, Inc.
  
 This software is provided under written license and may be
 used, copied, transmitted, or stored only in accord with that
 written license.
  
 The following legend is applicable only to US Government
 contracts under FAR:
  
                    RESTRICTED RIGHTS LEGEND
  
 Use, reproduction and disclosure by the US Government is
 subject to restrictions as set forth in subparagraphs (a)
 and (c) of the Commercial Computer Software - Restricted
 Rights clause in FAR 52.227-19.
  
 Gaussian, Inc.
 340 Quinnipiac St., Bldg. 40, Wallingford CT 06492
  
  
 ---------------------------------------------------------------
 Warning -- This program may not be used in any manner that
 competes with the business of Gaussian, Inc. or will provide
 assistance to any competitor of Gaussian, Inc.  The licensee
 of this program is prohibited from giving any competitor of
 Gaussian, Inc. access to this program.  By using this program,
 the user acknowledges that Gaussian, Inc. is engaged in the
 business of creating and licensing software in the field of
 computational chemistry and represents and warrants to the
 licensee that it is not a competitor of Gaussian, Inc. and that
 it will not use this program in any manner prohibited above.
 ---------------------------------------------------------------
  

 Cite this work as:
 Gaussian 16, Revision A.03,
 M. J. Frisch, G. W. Trucks, H. B. Schlegel, G. E. Scuseria, 
 M. A. Robb, J. R. Cheeseman, G. Scalmani, V. Barone, 
 G. A. Petersson, H. Nakatsuji, X. Li, M. Caricato, A. V. Marenich, 
 J. Bloino, B. G. Janesko, R. Gomperts, B. Mennucci, H. P. Hratchian, 
 J. V. Ortiz, A. F. Izmaylov, J. L. Sonnenberg, D. Williams-Young, 
 F. Ding, F. Lipparini, F. Egidi, J. Goings, B. Peng, A. Petrone, 
 T. Henderson, D. Ranasinghe, V. G. Zakrzewski, J. Gao, N. Rega, 
 G. Zheng, W. Liang, M. Hada, M. Ehara, K. Toyota, R. Fukuda, 
 J. Hasegawa, M. Ishida, T. Nakajima, Y. Honda, O. Kitao, H. Nakai, 
 T. Vreven, K. Throssell, J. A. Montgomery, Jr., J. E. Peralta, 
 F. Ogliaro, M. J. Bearpark, J. J. Heyd, E. N. Brothers, K. N. Kudin, 
 V. N. Staroverov, T. A. Keith, R. Kobayashi, J. Normand, 
 K. Raghavachari, A. P. Rendell, J. C. Burant, S. S. Iyengar, 
 J. Tomasi, M. Cossi, J. M. Millam, M. Klene, C. Adamo, R. Cammi, 
 J. W. Ochterski, R. L. Martin, K. Morokuma, O. Farkas, 
 J. B. Foresman, and D. J. Fox, Gaussian, Inc., Wallingford CT, 2016.
 
 ******************************************
 Gaussian 16:  ES64L-G16RevA.03 25-Dec-2016
                24-Feb-2023 
 ******************************************
 %RWF=myrwfile
 %NoSave
 %NProcShared=12
 Will use up to   12 processors via shared memory.
 %Chk=checkpoint.chk
 %mem=200MW
 ---------------------------------------------------------------
 # wB97XD Gen SCRF=(Solvent=TetraHydroFuran) Freq(Numer,Restart)
 ---------------------------------------------------------------
 1/35=1,38=10/6(3);
 7/8=1,25=1,44=-1/16;
 1/10=4,30=1,38=10/3;
 99//99;
 3/5=7,6=1,11=2,25=1,30=1,70=2205,71=1,72=20,74=-58,82=7/1,2,3;
 4/5=5,16=3,69=2/1;
 5/5=2,38=5,53=20,98=1/2;
 6/7=2,8=2,9=2,10=2,12=2,28=1/1;
 7/7=1/1,2,3,16;
 1/38=10/6(-5);
 7/8=1,25=1,44=-1/16;
 1/10=4,30=1,38=10/3;
 99//99;
 Restoring state from the checkpoint file "checkpoint.chk".
 ONIOM results not found on unit 2.
 Title:  TS Freq Analysis
 Route:  # wB97XD Gen SCRF=(Solvent=TetraHydroFuran) Freq(Numer)
 NDeriv=    189 NFrqRd=  0 NDerD0=      0 MskFDP=       0 MskDFD=       0 MskDF0=       0
 Re-enter D2Numr:  atom  14 IXYZ=3 step-up   number 1
 Basis read from rwf:  (5D, 7F)
   751 basis functions,  1339 primitive gaussians,   802 cartesian basis functions
   165 alpha electrons      165 beta electrons
       nuclear repulsion energy      5860.1863410860 Hartrees.
 NAtoms=   63 NActive=   63 NUniq=   63 SFac= 1.00D+00 NAtFMM=   60 NAOKFM=T Big=T
 Integral buffers will be    131072 words long.
 Raffenetti 2 integral format.
 Two-electron integral symmetry is turned off.
 Nuclear repulsion after empirical dispersion term =     5860.1232721020 Hartrees.
 ------------------------------------------------------------------------------
 Polarizable Continuum Model (PCM)
 =================================
 Model                : PCM.
 Atomic radii         : UFF (Universal Force Field).
 Polarization charges : Total charges.
 Charge compensation  : None.
 Solution method      : On-the-fly selection.
 Cavity type          : Scaled VdW (van der Waals Surface) (Alpha=1.100).
 Cavity algorithm     : GePol (No added spheres)
                        Default sphere list used, NSphG=   63.
                        Lebedev-Laikov grids with approx.  5.0 points / Ang**2.
                        Smoothing algorithm: York/Karplus (Gamma=1.0000).
                        Polarization charges: spherical gaussians, with
                                              point-specific exponents (IZeta= 3).
                        Self-potential: point-specific (ISelfS= 7).
                        Self-field    : sphere-specific E.n sum rule (ISelfD= 2).
 1st derivatives      : Analytical E(r).r(x)/FMM algorithm (CHGder, D1EAlg=3).
                        Cavity 1st derivative terms included.
 Solvent              : TetraHydroFuran, Eps=   7.425700 Eps(inf)=   1.974025
 ------------------------------------------------------------------------------
 One-electron integrals computed using PRISM.
 NBasis=   751 RedAO= T EigKep=  2.24D-04  NBF=   751
 NBsUse=   751 1.00D-06 EigRej= -1.00D+00 NBFU=   751
 Initial guess from the checkpoint file:  "checkpoint.chk"
 B after Tr=     0.000000   -0.000000   -0.000034
         Rot=    1.000000    0.000002    0.000002    0.000000 Ang=   0.00 deg.
 Requested convergence on RMS density matrix=1.00D-08 within 128 cycles.
 Requested convergence on MAX density matrix=1.00D-06.
 Requested convergence on             energy=1.00D-06.
 No special actions if energy rises.
 Inv3:  Mode=1 IEnd=    73864332.
 Iteration    1 A*A^-1 deviation from unit magnitude is 3.66D-15 for   2677.
 Iteration    1 A*A^-1 deviation from orthogonality  is 2.33D-15 for   3528    638.
 Iteration    1 A^-1*A deviation from unit magnitude is 3.66D-15 for   2677.
 Iteration    1 A^-1*A deviation from orthogonality  is 2.33D-15 for   3138    452.
 Error on total polarization charges =  0.02143
 SCF Done:  E(RwB97XD) =  -5421.44460065     A.U. after    7 cycles
            NFock=  7  Conv=0.44D-08     -V/T= 2.0041

 **********************************************************************

            Population analysis using the SCF density.

 **********************************************************************

 Alpha  occ. eigenvalues -- -482.95450-235.70868 -62.53491 -56.34054 -56.34042
 Alpha  occ. eigenvalues --  -56.34037 -27.47536 -23.53468 -23.53109 -23.53047
 Alpha  occ. eigenvalues --  -19.34579 -19.34549 -19.34480 -14.50816 -14.50808
 Alpha  occ. eigenvalues --  -14.46641 -10.42153 -10.42149 -10.42107 -10.37155
 Alpha  occ. eigenvalues --  -10.37146 -10.36612 -10.36597 -10.36290 -10.35592
 Alpha  occ. eigenvalues --  -10.34657 -10.34642 -10.34560 -10.34550 -10.33579
 Alpha  occ. eigenvalues --  -10.33563 -10.33446 -10.33343 -10.33330 -10.33279
 Alpha  occ. eigenvalues --  -10.33273 -10.33252 -10.32880 -10.32874 -10.32638
 Alpha  occ. eigenvalues --  -10.32390 -10.32331 -10.32322 -10.32278 -10.32115
 Alpha  occ. eigenvalues --  -10.32032 -10.32002 -10.31995 -10.31849 -10.31845
 Alpha  occ. eigenvalues --   -8.70244  -6.51946  -6.51911  -6.51893  -3.26993
 Alpha  occ. eigenvalues --   -2.62450  -2.62444  -2.62430  -2.62402  -2.62400
 Alpha  occ. eigenvalues --   -2.12858  -2.11933  -2.11838  -1.23595  -1.23522
 Alpha  occ. eigenvalues --   -1.23338  -1.08600  -1.08292  -1.02156  -1.00303
 Alpha  occ. eigenvalues --   -0.97878  -0.97631  -0.94480  -0.93281  -0.91392
 Alpha  occ. eigenvalues --   -0.90866  -0.89860  -0.88166  -0.87492  -0.86415
 Alpha  occ. eigenvalues --   -0.85280  -0.85010  -0.81928  -0.76800  -0.75890
 Alpha  occ. eigenvalues --   -0.75416  -0.75397  -0.74764  -0.74595  -0.74404
 Alpha  occ. eigenvalues --   -0.72311  -0.72000  -0.70290  -0.69012  -0.68211
 Alpha  occ. eigenvalues --   -0.65748  -0.65264  -0.65173  -0.64939  -0.64543
 Alpha  occ. eigenvalues --   -0.64525  -0.62674  -0.62128  -0.61074  -0.60185
 Alpha  occ. eigenvalues --   -0.59149  -0.58430  -0.57661  -0.57535  -0.57259
 Alpha  occ. eigenvalues --   -0.56934  -0.56634  -0.56504  -0.56108  -0.55969
 Alpha  occ. eigenvalues --   -0.55729  -0.55289  -0.54924  -0.54846  -0.54461
 Alpha  occ. eigenvalues --   -0.54383  -0.54049  -0.53365  -0.52994  -0.52542
 Alpha  occ. eigenvalues --   -0.52476  -0.52469  -0.51995  -0.51303  -0.51259
 Alpha  occ. eigenvalues --   -0.51137  -0.51126  -0.50556  -0.49464  -0.49101
 Alpha  occ. eigenvalues --   -0.48548  -0.47988  -0.47408  -0.47317  -0.46044
 Alpha  occ. eigenvalues --   -0.45766  -0.45145  -0.44922  -0.43753  -0.43718
 Alpha  occ. eigenvalues --   -0.43386  -0.42442  -0.41857  -0.41242  -0.40727
 Alpha  occ. eigenvalues --   -0.40365  -0.39660  -0.37837  -0.36581  -0.35653
 Alpha  occ. eigenvalues --   -0.35161  -0.33665  -0.33579  -0.33351  -0.33256
 Alpha  occ. eigenvalues --   -0.32218  -0.29676  -0.29549  -0.29260  -0.28006
 Alpha virt. eigenvalues --   -0.03076  -0.00631  -0.00228   0.00665   0.00885
 Alpha virt. eigenvalues --    0.01822   0.01972   0.02429   0.03948   0.04362
 Alpha virt. eigenvalues --    0.04411   0.06215   0.06763   0.06933   0.08994
 Alpha virt. eigenvalues --    0.09086   0.09320   0.09653   0.10278   0.10457
 Alpha virt. eigenvalues --    0.11514   0.12856   0.13149   0.13653   0.14141
 Alpha virt. eigenvalues --    0.14328   0.14515   0.15208   0.15299   0.15869
 Alpha virt. eigenvalues --    0.15969   0.16678   0.17421   0.17928   0.18748
 Alpha virt. eigenvalues --    0.18765   0.19435   0.19561   0.19965   0.20426
 Alpha virt. eigenvalues --    0.20692   0.21554   0.21948   0.22204   0.22549
 Alpha virt. eigenvalues --    0.22634   0.23077   0.23349   0.23564   0.24793
 Alpha virt. eigenvalues --    0.25806   0.26055   0.26284   0.27058   0.27633
 Alpha virt. eigenvalues --    0.28224   0.29140   0.29835   0.29958   0.30304
 Alpha virt. eigenvalues --    0.30590   0.31065   0.31321   0.31845   0.32138
 Alpha virt. eigenvalues --    0.32258   0.32387   0.32952   0.33573   0.33858
 Alpha virt. eigenvalues --    0.34153   0.34551   0.34959   0.35259   0.35505
 Alpha virt. eigenvalues --    0.35740   0.35879   0.36107   0.36534   0.36617
 Alpha virt. eigenvalues --    0.37667   0.37773   0.38516   0.38708   0.39173
 Alpha virt. eigenvalues --    0.39992   0.40344   0.41294   0.41500   0.42061
 Alpha virt. eigenvalues --    0.42085   0.42416   0.42830   0.44052   0.44123
 Alpha virt. eigenvalues --    0.44658   0.45434   0.45902   0.46661   0.47142
 Alpha virt. eigenvalues --    0.47615   0.47851   0.48132   0.48198   0.48660
 Alpha virt. eigenvalues --    0.49957   0.50343   0.50642   0.50978   0.51237
 Alpha virt. eigenvalues --    0.51386   0.51829   0.52338   0.52571   0.52721
 Alpha virt. eigenvalues --    0.52929   0.53258   0.53613   0.54216   0.54538
 Alpha virt. eigenvalues --    0.54715   0.54938   0.55107   0.55695   0.56045
 Alpha virt. eigenvalues --    0.56169   0.56612   0.57290   0.57442   0.57612
 Alpha virt. eigenvalues --    0.58117   0.58841   0.59167   0.60149   0.60188
 Alpha virt. eigenvalues --    0.60481   0.60537   0.61090   0.61536   0.61562
 Alpha virt. eigenvalues --    0.61655   0.63252   0.63679   0.64164   0.64797
 Alpha virt. eigenvalues --    0.64870   0.65512   0.65575   0.66391   0.66851
 Alpha virt. eigenvalues --    0.67113   0.67513   0.67782   0.67969   0.68594
 Alpha virt. eigenvalues --    0.68665   0.69960   0.70448   0.70463   0.70837
 Alpha virt. eigenvalues --    0.71289   0.71714   0.71841   0.71962   0.72437
 Alpha virt. eigenvalues --    0.72724   0.72906   0.73016   0.73390   0.73444
 Alpha virt. eigenvalues --    0.73851   0.74055   0.74407   0.74728   0.74775
 Alpha virt. eigenvalues --    0.75330   0.75492   0.75677   0.75864   0.76425
 Alpha virt. eigenvalues --    0.76803   0.77012   0.77094   0.77677   0.78346
 Alpha virt. eigenvalues --    0.78428   0.78798   0.79081   0.79464   0.79631
 Alpha virt. eigenvalues --    0.80318   0.80483   0.80641   0.81157   0.81562
 Alpha virt. eigenvalues --    0.81687   0.81747   0.82534   0.82826   0.83703
 Alpha virt. eigenvalues --    0.83882   0.83944   0.84180   0.84541   0.84952
 Alpha virt. eigenvalues --    0.85264   0.85470   0.85590   0.86366   0.86933
 Alpha virt. eigenvalues --    0.86981   0.87336   0.87585   0.87834   0.88091
 Alpha virt. eigenvalues --    0.88432   0.89182   0.89271   0.90107   0.90255
 Alpha virt. eigenvalues --    0.90398   0.91416   0.91567   0.91687   0.92315
 Alpha virt. eigenvalues --    0.93825   0.94113   0.94330   0.94615   0.95170
 Alpha virt. eigenvalues --    0.95551   0.95790   0.96400   0.96945   0.97917
 Alpha virt. eigenvalues --    0.98167   0.98771   0.99051   0.99928   1.01484
 Alpha virt. eigenvalues --    1.01650   1.02259   1.03323   1.04783   1.04870
 Alpha virt. eigenvalues --    1.06584   1.07486   1.08883   1.09257   1.09532
 Alpha virt. eigenvalues --    1.10999   1.11357   1.13139   1.13664   1.14650
 Alpha virt. eigenvalues --    1.14825   1.15072   1.15859   1.16053   1.16212
 Alpha virt. eigenvalues --    1.16940   1.17830   1.18103   1.20811   1.21677
 Alpha virt. eigenvalues --    1.22020   1.22399   1.22963   1.24406   1.24559
 Alpha virt. eigenvalues --    1.24933   1.25187   1.25641   1.26220   1.26293
 Alpha virt. eigenvalues --    1.27537   1.27952   1.28437   1.28486   1.29548
 Alpha virt. eigenvalues --    1.29717   1.30257   1.30695   1.30740   1.30905
 Alpha virt. eigenvalues --    1.31492   1.32315   1.33092   1.33691   1.33902
 Alpha virt. eigenvalues --    1.34205   1.34449   1.34788   1.35320   1.35557
 Alpha virt. eigenvalues --    1.35871   1.35894   1.36200   1.37549   1.37660
 Alpha virt. eigenvalues --    1.38224   1.38353   1.38527   1.40218   1.40707
 Alpha virt. eigenvalues --    1.41966   1.42184   1.43182   1.43371   1.44536
 Alpha virt. eigenvalues --    1.45456   1.46746   1.48076   1.48176   1.49403
 Alpha virt. eigenvalues --    1.50470   1.54890   1.55600   1.55679   1.58905
 Alpha virt. eigenvalues --    1.59142   1.59885   1.62371   1.63630   1.64308
 Alpha virt. eigenvalues --    1.64908   1.65579   1.66559   1.67563   1.67772
 Alpha virt. eigenvalues --    1.68767   1.69730   1.70941   1.71703   1.72026
 Alpha virt. eigenvalues --    1.72838   1.73013   1.73258   1.73684   1.73806
 Alpha virt. eigenvalues --    1.74428   1.74744   1.75046   1.75481   1.76003
 Alpha virt. eigenvalues --    1.77226   1.77266   1.78099   1.78469   1.78660
 Alpha virt. eigenvalues --    1.78735   1.79400   1.79548   1.79943   1.80022
 Alpha virt. eigenvalues --    1.80390   1.80907   1.81462   1.81628   1.81805
 Alpha virt. eigenvalues --    1.81933   1.82091   1.82234   1.82644   1.82947
 Alpha virt. eigenvalues --    1.83416   1.84105   1.84305   1.84700   1.84877
 Alpha virt. eigenvalues --    1.85666   1.86099   1.86402   1.87097   1.87406
 Alpha virt. eigenvalues --    1.87653   1.87872   1.88296   1.89699   1.89768
 Alpha virt. eigenvalues --    1.90380   1.90390   1.91078   1.91254   1.91853
 Alpha virt. eigenvalues --    1.93363   1.94161   1.94321   1.95549   1.96082
 Alpha virt. eigenvalues --    1.96776   1.97088   1.97574   1.98315   1.99282
 Alpha virt. eigenvalues --    1.99393   2.00592   2.01153   2.01432   2.02199
 Alpha virt. eigenvalues --    2.02567   2.02833   2.03216   2.03867   2.04510
 Alpha virt. eigenvalues --    2.04823   2.04995   2.05423   2.05737   2.06135
 Alpha virt. eigenvalues --    2.06933   2.07932   2.09214   2.10063   2.10351
 Alpha virt. eigenvalues --    2.10928   2.11071   2.11847   2.12283   2.13924
 Alpha virt. eigenvalues --    2.14629   2.15516   2.15827   2.16621   2.16714
 Alpha virt. eigenvalues --    2.16847   2.17880   2.18162   2.18592   2.19588
 Alpha virt. eigenvalues --    2.20334   2.20568   2.20888   2.21319   2.21566
 Alpha virt. eigenvalues --    2.23280   2.23575   2.24383   2.24516   2.25804
 Alpha virt. eigenvalues --    2.26114   2.29375   2.29967   2.30736   2.31367
 Alpha virt. eigenvalues --    2.31465   2.31667   2.32816   2.33451   2.34417
 Alpha virt. eigenvalues --    2.34998   2.35842   2.36062   2.36679   2.37393
 Alpha virt. eigenvalues --    2.37640   2.37771   2.38132   2.38460   2.38833
 Alpha virt. eigenvalues --    2.39565   2.39699   2.41342   2.41779   2.42684
 Alpha virt. eigenvalues --    2.44070   2.45206   2.45227   2.46164   2.46723
 Alpha virt. eigenvalues --    2.47509   2.48029   2.49901   2.49976   2.50721
 Alpha virt. eigenvalues --    2.53627   2.54881   2.56236   2.57333   2.59231
 Alpha virt. eigenvalues --    2.60221   2.60990   2.61535   2.63768   2.64676
 Alpha virt. eigenvalues --    2.65771   2.65964   2.66727   2.67003   2.67569
 Alpha virt. eigenvalues --    2.67639   2.68240   2.69480   2.69821   2.69877
 Alpha virt. eigenvalues --    2.70036   2.70324   2.70408   2.70880   2.71112
 Alpha virt. eigenvalues --    2.72106   2.72445   2.72721   2.74322   2.74770
 Alpha virt. eigenvalues --    2.75737   2.77001   2.79231   2.79454   2.80058
 Alpha virt. eigenvalues --    2.80124   2.80337   2.80466   2.81824   2.82261
 Alpha virt. eigenvalues --    2.84526   2.85249   2.85777   2.86413   2.87058
 Alpha virt. eigenvalues --    2.87178   2.89628   2.91418   2.91873   2.94574
 Alpha virt. eigenvalues --    2.95897   2.97864   2.98469   2.99080   3.01341
 Alpha virt. eigenvalues --    3.02742   3.05012   3.05838   3.06159   3.07096
 Alpha virt. eigenvalues --    3.08635   3.09704   3.10251   3.11774   3.12513
 Alpha virt. eigenvalues --    3.15831   3.16232   3.19168   3.19723   3.20318
 Alpha virt. eigenvalues --    3.20731   3.20962   3.21892   3.22245   3.24163
 Alpha virt. eigenvalues --    3.24722   3.29757   3.29915   3.32662   3.32888
 Alpha virt. eigenvalues --    3.38115   3.39038   3.41616   3.45670   3.45952
 Alpha virt. eigenvalues --    3.47220   3.50718   3.52353   3.55488   3.58476
 Alpha virt. eigenvalues --    3.60568   3.62393   3.63151   3.63233   3.63510
 Alpha virt. eigenvalues --    3.63827   3.65785   3.66480   3.71965   3.72713
 Alpha virt. eigenvalues --    3.75732   3.75935   3.76575   3.78847   3.79451
 Alpha virt. eigenvalues --    3.82130   3.85097   3.92417   3.95062   4.02492
 Alpha virt. eigenvalues --    4.08528
 Electronic spatial extent (au):  <R**2>=          25433.5953
 Charge=              0.0000 electrons
 Dipole moment (field-independent basis, Debye):
    X=             19.7657    Y=             14.4253    Z=              0.2450  Tot=             24.4710
 Quadrupole moment (field-independent basis, Debye-Ang):
   XX=           -308.1998   YY=           -250.2943   ZZ=           -219.8937
   XY=            -55.8830   XZ=             -1.6720   YZ=             -1.4370
 Traceless Quadrupole moment (field-independent basis, Debye-Ang):
   XX=            -48.7371   YY=              9.1683   ZZ=             39.5689
   XY=            -55.8830   XZ=             -1.6720   YZ=             -1.4370
 Octapole moment (field-independent basis, Debye-Ang**2):
  XXX=            512.4549  YYY=            116.1003  ZZZ=              1.9929  XYY=           -130.6869
  XXY=            290.7007  XXZ=             12.2587  XZZ=             49.7722  YZZ=             10.7665
  YYZ=             -2.9567  XYZ=            -10.4896
 Hexadecapole moment (field-independent basis, Debye-Ang**3):
 XXXX=         -19177.7538 YYYY=          -7166.2613 ZZZZ=          -5533.8313 XXXY=          -1221.8746
 XXXZ=            -63.9203 YYYX=           -623.3931 YYYZ=             13.5881 ZZZX=             11.8715
 ZZZY=            -32.1348 XXYY=          -4544.7784 XXZZ=          -3815.2788 YYZZ=          -2544.3270
 XXYZ=             17.9132 YYXZ=            -30.3847 ZZXY=            133.4898
 N-N= 5.860123272102D+03 E-N=-2.454764834462D+04  KE= 5.399270217152D+03
 D1PCM: PCM CHGder 1st derivatives, ID1Alg=3 FixD1E=F DoIter=F DoCFld=F I1PDM=0.
 Calling FoFJK, ICntrl=      2127 FMM=T ISym2X=0 I1Cent= 0 IOpClX= 0 NMat=1 NMatS=1 NMatT=0.
 -------------------------------------------------------------------
 Center     Atomic                   Forces (Hartrees/Bohr)
 Number     Number              X              Y              Z
 -------------------------------------------------------------------
      1       25          -0.000069349   -0.000052052    0.000093232
      2        6           0.000022291   -0.000027544   -0.000009482
      3        8          -0.000005450    0.000010428    0.000001352
      4        6           0.000017160   -0.000074075   -0.000028768
      5        8           0.000006480   -0.000009870    0.000002839
      6        6           0.000002421   -0.000038240   -0.000036034
      7        7          -0.000123999    0.000016525   -0.000080751
      8        6          -0.000009048   -0.000051371    0.000035644
      9        6           0.000002897    0.000004601    0.000017322
     10        6           0.000035778   -0.000002411   -0.000013918
     11        1          -0.000015381    0.000020560   -0.000017919
     12        1           0.000000699    0.000002499   -0.000000614
     13        7           0.000229021    0.000023771   -0.000137209
     14        6          -0.000127506    0.000086610    0.000287418
     15        6          -0.000039823   -0.000018164   -0.000159060
     16        6          -0.000039164    0.000006527   -0.000012225
     17        6          -0.000004658   -0.000014845    0.000016756
     18        6          -0.000180249    0.000084030    0.000100988
     19        1           0.000003635   -0.000014359   -0.000012549
     20        1           0.000230110   -0.000085450   -0.000107746
     21        7          -0.000047460    0.000025015   -0.000003705
     22        6           0.000000223   -0.000030986   -0.000011741
     23        6           0.000002247    0.000011391   -0.000004944
     24        1          -0.000045356   -0.000015110    0.000039806
     25        6          -0.000005416   -0.000012713   -0.000009757
     26        1          -0.000005819   -0.000007555   -0.000002236
     27        6           0.000030803    0.000014185    0.000003773
     28        1           0.000008664   -0.000004287   -0.000009035
     29        1          -0.000006008   -0.000000548    0.000002665
     30        8           0.000003374    0.000020296    0.000013436
     31        6           0.000047091    0.000002391    0.000119464
     32        6           0.000018382    0.000023150   -0.000046580
     33        6           0.000012189    0.000024326    0.000023000
     34        6           0.000026235    0.000013228   -0.000030214
     35        6          -0.000009176    0.000006765   -0.000004744
     36        6           0.000000149    0.000004837    0.000008796
     37        6           0.000009128    0.000005486   -0.000007610
     38        6          -0.000018000    0.000001243    0.000024993
     39        6          -0.000022992    0.000021045   -0.000036972
     40        1          -0.000000271    0.000002778    0.000002283
     41        1           0.000004239    0.000004885    0.000003733
     42        1           0.000003449    0.000005518   -0.000002184
     43        6           0.000004167   -0.000006049    0.000029807
     44        6           0.000008460    0.000004566   -0.000000330
     45        6           0.000002159    0.000003758   -0.000004725
     46        6          -0.000005005    0.000005071    0.000000269
     47        6           0.000001288    0.000002400    0.000009833
     48        6           0.000006407    0.000009111   -0.000030827
     49        1          -0.000003627    0.000005578   -0.000000004
     50        1           0.000000600    0.000006542    0.000000302
     51        1          -0.000004602    0.000003548   -0.000002592
     52        6          -0.000002923   -0.000010298   -0.000015670
     53        1           0.000001369    0.000002753   -0.000003363
     54        6          -0.000000749   -0.000022138   -0.000004495
     55        1           0.000002884    0.000001000   -0.000005791
     56        1          -0.000002570    0.000003247    0.000002971
     57        6          -0.000003791   -0.000005930    0.000001135
     58        6           0.000004022    0.000011356    0.000015777
     59        1          -0.000003265   -0.000008888    0.000002552
     60        1          -0.000005392   -0.000007541   -0.000004317
     61       35           0.000003231    0.000024985    0.000010771
     62        1           0.000050914    0.000002710   -0.000022675
     63        1           0.000004881   -0.000008291    0.000009871
 -------------------------------------------------------------------
 Cartesian Forces:  Max     0.000287418 RMS     0.000047739
 NDeriv=    189 NFrqRd=  0 NDerD0=      0 MskFDP=       0 MskDFD=       0 MskDF0=       0
 Re-enter D2Numr:  atom  14 IXYZ=3 step-down number 1
 Basis read from rwf:  (5D, 7F)
   751 basis functions,  1339 primitive gaussians,   802 cartesian basis functions
   165 alpha electrons      165 beta electrons
       nuclear repulsion energy      5860.1928938148 Hartrees.
 NAtoms=   63 NActive=   63 NUniq=   63 SFac= 1.00D+00 NAtFMM=   60 NAOKFM=T Big=T
 Integral buffers will be    131072 words long.
 Raffenetti 2 integral format.
 Two-electron integral symmetry is turned off.
 Nuclear repulsion after empirical dispersion term =     5860.1298245867 Hartrees.
 ------------------------------------------------------------------------------
 Polarizable Continuum Model (PCM)
 =================================
 Model                : PCM.
 Atomic radii         : UFF (Universal Force Field).
 Polarization charges : Total charges.
 Charge compensation  : None.
 Solution method      : On-the-fly selection.
 Cavity type          : Scaled VdW (van der Waals Surface) (Alpha=1.100).
 Cavity algorithm     : GePol (No added spheres)
                        Default sphere list used, NSphG=   63.
                        Lebedev-Laikov grids with approx.  5.0 points / Ang**2.
                        Smoothing algorithm: York/Karplus (Gamma=1.0000).
                        Polarization charges: spherical gaussians, with
                                              point-specific exponents (IZeta= 3).
                        Self-potential: point-specific (ISelfS= 7).
                        Self-field    : sphere-specific E.n sum rule (ISelfD= 2).
 1st derivatives      : Analytical E(r).r(x)/FMM algorithm (CHGder, D1EAlg=3).
                        Cavity 1st derivative terms included.
 Solvent              : TetraHydroFuran, Eps=   7.425700 Eps(inf)=   1.974025
 ------------------------------------------------------------------------------
 One-electron integrals computed using PRISM.
 NBasis=   751 RedAO= T EigKep=  2.24D-04  NBF=   751
 NBsUse=   751 1.00D-06 EigRej= -1.00D+00 NBFU=   751
 Initial guess from the checkpoint file:  "checkpoint.chk"
 B after Tr=     0.000034    0.000000    0.000000
         Rot=    1.000000    0.000000   -0.000000    0.000002 Ang=  -0.00 deg.
 Requested convergence on RMS density matrix=1.00D-08 within 128 cycles.
 Requested convergence on MAX density matrix=1.00D-06.
 Requested convergence on             energy=1.00D-06.
 No special actions if energy rises.
 Inv3:  Mode=1 IEnd=    73864332.
 Iteration    1 A*A^-1 deviation from unit magnitude is 4.11D-15 for   2511.
 Iteration    1 A*A^-1 deviation from orthogonality  is 2.33D-15 for   4449   1353.
 Iteration    1 A^-1*A deviation from unit magnitude is 4.11D-15 for   2511.
 Iteration    1 A^-1*A deviation from orthogonality  is 2.89D-15 for   4212    884.
 Error on total polarization charges =  0.02143
 SCF Done:  E(RwB97XD) =  -5421.44459971     A.U. after    9 cycles
            NFock=  9  Conv=0.30D-08     -V/T= 2.0041

 **********************************************************************

            Population analysis using the SCF density.

 **********************************************************************

 Alpha  occ. eigenvalues -- -482.95450-235.70868 -62.53491 -56.34054 -56.34042
 Alpha  occ. eigenvalues --  -56.34037 -27.47536 -23.53468 -23.53109 -23.53047
 Alpha  occ. eigenvalues --  -19.34579 -19.34549 -19.34480 -14.50816 -14.50808
 Alpha  occ. eigenvalues --  -14.46642 -10.42153 -10.42149 -10.42107 -10.37155
 Alpha  occ. eigenvalues --  -10.37146 -10.36612 -10.36597 -10.36289 -10.35591
 Alpha  occ. eigenvalues --  -10.34657 -10.34642 -10.34560 -10.34550 -10.33579
 Alpha  occ. eigenvalues --  -10.33563 -10.33443 -10.33343 -10.33330 -10.33279
 Alpha  occ. eigenvalues --  -10.33273 -10.33259 -10.32880 -10.32874 -10.32639
 Alpha  occ. eigenvalues --  -10.32390 -10.32331 -10.32322 -10.32279 -10.32115
 Alpha  occ. eigenvalues --  -10.32032 -10.32002 -10.31995 -10.31849 -10.31845
 Alpha  occ. eigenvalues --   -8.70244  -6.51946  -6.51911  -6.51893  -3.26992
 Alpha  occ. eigenvalues --   -2.62450  -2.62444  -2.62430  -2.62402  -2.62400
 Alpha  occ. eigenvalues --   -2.12858  -2.11933  -2.11838  -1.23595  -1.23522
 Alpha  occ. eigenvalues --   -1.23338  -1.08601  -1.08292  -1.02156  -1.00303
 Alpha  occ. eigenvalues --   -0.97876  -0.97631  -0.94480  -0.93281  -0.91392
 Alpha  occ. eigenvalues --   -0.90866  -0.89860  -0.88168  -0.87492  -0.86414
 Alpha  occ. eigenvalues --   -0.85280  -0.85010  -0.81928  -0.76800  -0.75890
 Alpha  occ. eigenvalues --   -0.75416  -0.75397  -0.74770  -0.74595  -0.74404
 Alpha  occ. eigenvalues --   -0.72311  -0.71999  -0.70290  -0.69012  -0.68211
 Alpha  occ. eigenvalues --   -0.65748  -0.65264  -0.65173  -0.64939  -0.64543
 Alpha  occ. eigenvalues --   -0.64525  -0.62674  -0.62128  -0.61074  -0.60185
 Alpha  occ. eigenvalues --   -0.59152  -0.58430  -0.57661  -0.57535  -0.57258
 Alpha  occ. eigenvalues --   -0.56934  -0.56634  -0.56504  -0.56108  -0.55969
 Alpha  occ. eigenvalues --   -0.55729  -0.55289  -0.54924  -0.54846  -0.54461
 Alpha  occ. eigenvalues --   -0.54383  -0.54050  -0.53365  -0.52992  -0.52542
 Alpha  occ. eigenvalues --   -0.52477  -0.52469  -0.51995  -0.51303  -0.51259
 Alpha  occ. eigenvalues --   -0.51137  -0.51126  -0.50557  -0.49465  -0.49101
 Alpha  occ. eigenvalues --   -0.48548  -0.47988  -0.47408  -0.47317  -0.46044
 Alpha  occ. eigenvalues --   -0.45770  -0.45145  -0.44922  -0.43752  -0.43717
 Alpha  occ. eigenvalues --   -0.43384  -0.42443  -0.41857  -0.41242  -0.40727
 Alpha  occ. eigenvalues --   -0.40365  -0.39660  -0.37837  -0.36581  -0.35654
 Alpha  occ. eigenvalues --   -0.35158  -0.33664  -0.33579  -0.33351  -0.33256
 Alpha  occ. eigenvalues --   -0.32218  -0.29676  -0.29549  -0.29260  -0.28006
 Alpha virt. eigenvalues --   -0.03076  -0.00631  -0.00231   0.00663   0.00885
 Alpha virt. eigenvalues --    0.01822   0.01971   0.02429   0.03949   0.04362
 Alpha virt. eigenvalues --    0.04411   0.06215   0.06763   0.06933   0.08994
 Alpha virt. eigenvalues --    0.09084   0.09320   0.09653   0.10278   0.10457
 Alpha virt. eigenvalues --    0.11514   0.12858   0.13149   0.13653   0.14142
 Alpha virt. eigenvalues --    0.14329   0.14515   0.15208   0.15299   0.15869
 Alpha virt. eigenvalues --    0.15969   0.16678   0.17420   0.17927   0.18748
 Alpha virt. eigenvalues --    0.18765   0.19434   0.19563   0.19966   0.20426
 Alpha virt. eigenvalues --    0.20692   0.21554   0.21948   0.22205   0.22549
 Alpha virt. eigenvalues --    0.22633   0.23077   0.23349   0.23567   0.24793
 Alpha virt. eigenvalues --    0.25806   0.26055   0.26284   0.27059   0.27633
 Alpha virt. eigenvalues --    0.28224   0.29141   0.29836   0.29958   0.30309
 Alpha virt. eigenvalues --    0.30590   0.31065   0.31321   0.31842   0.32138
 Alpha virt. eigenvalues --    0.32258   0.32387   0.32952   0.33573   0.33858
 Alpha virt. eigenvalues --    0.34153   0.34554   0.34959   0.35259   0.35505
 Alpha virt. eigenvalues --    0.35740   0.35883   0.36107   0.36533   0.36617
 Alpha virt. eigenvalues --    0.37667   0.37774   0.38516   0.38702   0.39172
 Alpha virt. eigenvalues --    0.39992   0.40344   0.41294   0.41500   0.42061
 Alpha virt. eigenvalues --    0.42085   0.42416   0.42829   0.44052   0.44122
 Alpha virt. eigenvalues --    0.44658   0.45434   0.45902   0.46660   0.47142
 Alpha virt. eigenvalues --    0.47615   0.47852   0.48132   0.48198   0.48660
 Alpha virt. eigenvalues --    0.49956   0.50343   0.50642   0.50980   0.51237
 Alpha virt. eigenvalues --    0.51386   0.51829   0.52339   0.52572   0.52721
 Alpha virt. eigenvalues --    0.52929   0.53258   0.53613   0.54216   0.54538
 Alpha virt. eigenvalues --    0.54713   0.54938   0.55107   0.55695   0.56045
 Alpha virt. eigenvalues --    0.56169   0.56612   0.57290   0.57442   0.57610
 Alpha virt. eigenvalues --    0.58117   0.58841   0.59166   0.60150   0.60189
 Alpha virt. eigenvalues --    0.60481   0.60536   0.61090   0.61536   0.61562
 Alpha virt. eigenvalues --    0.61655   0.63252   0.63679   0.64164   0.64797
 Alpha virt. eigenvalues --    0.64870   0.65512   0.65575   0.66385   0.66851
 Alpha virt. eigenvalues --    0.67113   0.67512   0.67782   0.67968   0.68594
 Alpha virt. eigenvalues --    0.68665   0.69960   0.70448   0.70462   0.70836
 Alpha virt. eigenvalues --    0.71287   0.71713   0.71841   0.71962   0.72437
 Alpha virt. eigenvalues --    0.72724   0.72906   0.73016   0.73390   0.73444
 Alpha virt. eigenvalues --    0.73850   0.74055   0.74407   0.74729   0.74776
 Alpha virt. eigenvalues --    0.75331   0.75491   0.75675   0.75864   0.76425
 Alpha virt. eigenvalues --    0.76802   0.77012   0.77095   0.77676   0.78346
 Alpha virt. eigenvalues --    0.78428   0.78797   0.79082   0.79464   0.79632
 Alpha virt. eigenvalues --    0.80317   0.80483   0.80641   0.81155   0.81562
 Alpha virt. eigenvalues --    0.81687   0.81747   0.82534   0.82826   0.83703
 Alpha virt. eigenvalues --    0.83883   0.83944   0.84179   0.84542   0.84952
 Alpha virt. eigenvalues --    0.85264   0.85470   0.85590   0.86367   0.86932
 Alpha virt. eigenvalues --    0.86981   0.87336   0.87585   0.87834   0.88091
 Alpha virt. eigenvalues --    0.88432   0.89182   0.89271   0.90108   0.90251
 Alpha virt. eigenvalues --    0.90397   0.91417   0.91566   0.91687   0.92317
 Alpha virt. eigenvalues --    0.93825   0.94113   0.94329   0.94615   0.95171
 Alpha virt. eigenvalues --    0.95550   0.95792   0.96400   0.96945   0.97920
 Alpha virt. eigenvalues --    0.98167   0.98772   0.99050   0.99928   1.01484
 Alpha virt. eigenvalues --    1.01649   1.02258   1.03323   1.04782   1.04870
 Alpha virt. eigenvalues --    1.06585   1.07488   1.08880   1.09257   1.09532
 Alpha virt. eigenvalues --    1.10998   1.11360   1.13139   1.13669   1.14649
 Alpha virt. eigenvalues --    1.14823   1.15069   1.15867   1.16048   1.16211
 Alpha virt. eigenvalues --    1.16941   1.17831   1.18102   1.20812   1.21678
 Alpha virt. eigenvalues --    1.22020   1.22399   1.22964   1.24406   1.24561
 Alpha virt. eigenvalues --    1.24943   1.25173   1.25643   1.26220   1.26293
 Alpha virt. eigenvalues --    1.27537   1.27951   1.28437   1.28485   1.29549
 Alpha virt. eigenvalues --    1.29718   1.30257   1.30695   1.30740   1.30905
 Alpha virt. eigenvalues --    1.31492   1.32315   1.33092   1.33692   1.33903
 Alpha virt. eigenvalues --    1.34207   1.34448   1.34787   1.35320   1.35557
 Alpha virt. eigenvalues --    1.35871   1.35894   1.36200   1.37547   1.37660
 Alpha virt. eigenvalues --    1.38223   1.38353   1.38528   1.40215   1.40708
 Alpha virt. eigenvalues --    1.41966   1.42184   1.43183   1.43370   1.44535
 Alpha virt. eigenvalues --    1.45456   1.46746   1.48077   1.48175   1.49402
 Alpha virt. eigenvalues --    1.50470   1.54890   1.55601   1.55680   1.58904
 Alpha virt. eigenvalues --    1.59144   1.59885   1.62372   1.63630   1.64307
 Alpha virt. eigenvalues --    1.64907   1.65577   1.66556   1.67562   1.67773
 Alpha virt. eigenvalues --    1.68761   1.69729   1.70941   1.71703   1.72026
 Alpha virt. eigenvalues --    1.72838   1.73008   1.73258   1.73683   1.73805
 Alpha virt. eigenvalues --    1.74428   1.74744   1.75046   1.75480   1.76003
 Alpha virt. eigenvalues --    1.77226   1.77266   1.78099   1.78469   1.78660
 Alpha virt. eigenvalues --    1.78734   1.79399   1.79548   1.79943   1.80022
 Alpha virt. eigenvalues --    1.80389   1.80906   1.81462   1.81627   1.81812
 Alpha virt. eigenvalues --    1.81933   1.82083   1.82235   1.82643   1.82948
 Alpha virt. eigenvalues --    1.83412   1.84103   1.84306   1.84700   1.84877
 Alpha virt. eigenvalues --    1.85666   1.86099   1.86401   1.87099   1.87400
 Alpha virt. eigenvalues --    1.87653   1.87872   1.88296   1.89698   1.89768
 Alpha virt. eigenvalues --    1.90380   1.90395   1.91078   1.91256   1.91853
 Alpha virt. eigenvalues --    1.93363   1.94162   1.94321   1.95549   1.96082
 Alpha virt. eigenvalues --    1.96776   1.97088   1.97575   1.98312   1.99281
 Alpha virt. eigenvalues --    1.99395   2.00594   2.01153   2.01431   2.02196
 Alpha virt. eigenvalues --    2.02567   2.02833   2.03216   2.03867   2.04511
 Alpha virt. eigenvalues --    2.04823   2.05002   2.05422   2.05737   2.06136
 Alpha virt. eigenvalues --    2.06933   2.07932   2.09214   2.10063   2.10351
 Alpha virt. eigenvalues --    2.10927   2.11070   2.11847   2.12283   2.13924
 Alpha virt. eigenvalues --    2.14630   2.15516   2.15827   2.16621   2.16715
 Alpha virt. eigenvalues --    2.16851   2.17880   2.18162   2.18592   2.19588
 Alpha virt. eigenvalues --    2.20334   2.20565   2.20888   2.21315   2.21566
 Alpha virt. eigenvalues --    2.23280   2.23575   2.24383   2.24516   2.25804
 Alpha virt. eigenvalues --    2.26114   2.29381   2.29967   2.30734   2.31367
 Alpha virt. eigenvalues --    2.31465   2.31667   2.32809   2.33450   2.34416
 Alpha virt. eigenvalues --    2.35005   2.35841   2.36062   2.36679   2.37388
 Alpha virt. eigenvalues --    2.37640   2.37772   2.38135   2.38454   2.38834
 Alpha virt. eigenvalues --    2.39565   2.39699   2.41351   2.41773   2.42684
 Alpha virt. eigenvalues --    2.44070   2.45206   2.45228   2.46164   2.46723
 Alpha virt. eigenvalues --    2.47509   2.48029   2.49901   2.49976   2.50721
 Alpha virt. eigenvalues --    2.53627   2.54881   2.56236   2.57333   2.59226
 Alpha virt. eigenvalues --    2.60221   2.60990   2.61535   2.63768   2.64676
 Alpha virt. eigenvalues --    2.65772   2.65964   2.66727   2.66992   2.67569
 Alpha virt. eigenvalues --    2.67640   2.68240   2.69480   2.69821   2.69877
 Alpha virt. eigenvalues --    2.70036   2.70324   2.70408   2.70869   2.71112
 Alpha virt. eigenvalues --    2.72106   2.72445   2.72721   2.74322   2.74770
 Alpha virt. eigenvalues --    2.75737   2.76984   2.79231   2.79454   2.80058
 Alpha virt. eigenvalues --    2.80123   2.80337   2.80469   2.81824   2.82261
 Alpha virt. eigenvalues --    2.84526   2.85249   2.85777   2.86412   2.87058
 Alpha virt. eigenvalues --    2.87178   2.89628   2.91418   2.91867   2.94573
 Alpha virt. eigenvalues --    2.95897   2.97864   2.98469   2.99093   3.01340
 Alpha virt. eigenvalues --    3.02743   3.05012   3.05838   3.06159   3.07096
 Alpha virt. eigenvalues --    3.08648   3.09711   3.10265   3.11774   3.12513
 Alpha virt. eigenvalues --    3.15831   3.16230   3.19168   3.19723   3.20318
 Alpha virt. eigenvalues --    3.20731   3.20962   3.21888   3.22245   3.24163
 Alpha virt. eigenvalues --    3.24722   3.29757   3.29915   3.32662   3.32888
 Alpha virt. eigenvalues --    3.38116   3.39045   3.41616   3.45672   3.45952
 Alpha virt. eigenvalues --    3.47220   3.50718   3.52354   3.55494   3.58477
 Alpha virt. eigenvalues --    3.60568   3.62393   3.63151   3.63233   3.63510
 Alpha virt. eigenvalues --    3.63826   3.65785   3.66480   3.71965   3.72713
 Alpha virt. eigenvalues --    3.75726   3.75935   3.76573   3.78847   3.79450
 Alpha virt. eigenvalues --    3.82131   3.85097   3.92417   3.95062   4.02492
 Alpha virt. eigenvalues --    4.08528
 Electronic spatial extent (au):  <R**2>=          25433.4519
 Charge=             -0.0000 electrons
 Dipole moment (field-independent basis, Debye):
    X=             19.7661    Y=             14.4262    Z=              0.2459  Tot=             24.4719
 Quadrupole moment (field-independent basis, Debye-Ang):
   XX=           -308.2018   YY=           -250.2879   ZZ=           -219.8937
   XY=            -55.8869   XZ=             -1.6746   YZ=             -1.4348
 Traceless Quadrupole moment (field-independent basis, Debye-Ang):
   XX=            -48.7407   YY=              9.1733   ZZ=             39.5675
   XY=            -55.8869   XZ=             -1.6746   YZ=             -1.4348
 Octapole moment (field-independent basis, Debye-Ang**2):
  XXX=            512.4517  YYY=            116.1454  ZZZ=              1.9752  XYY=           -130.7244
  XXY=            290.7203  XXZ=             12.2605  XZZ=             49.7700  YZZ=             10.7670
  YYZ=             -2.9575  XYZ=            -10.4959
 Hexadecapole moment (field-independent basis, Debye-Ang**3):
 XXXX=         -19177.5968 YYYY=          -7165.9797 ZZZZ=          -5533.8305 XXXY=          -1222.0357
 XXXZ=            -63.8995 YYYX=           -623.6768 YYYZ=             13.5701 ZZZX=             11.9169
 ZZZY=            -32.1665 XXYY=          -4544.5721 XXZZ=          -3815.2600 YYZZ=          -2544.3208
 XXYZ=             17.9227 YYXZ=            -30.3838 ZZXY=            133.4776
 N-N= 5.860129824587D+03 E-N=-2.454766114908D+04  KE= 5.399269877903D+03
 D1PCM: PCM CHGder 1st derivatives, ID1Alg=3 FixD1E=F DoIter=F DoCFld=F I1PDM=0.
 Calling FoFJK, ICntrl=      2127 FMM=T ISym2X=0 I1Cent= 0 IOpClX= 0 NMat=1 NMatS=1 NMatT=0.
 -------------------------------------------------------------------
 Center     Atomic                   Forces (Hartrees/Bohr)
 Number     Number              X              Y              Z
 -------------------------------------------------------------------
      1       25          -0.000069640   -0.000052114    0.000093095
      2        6           0.000022010   -0.000027588   -0.000009703
      3        8          -0.000005316    0.000010535    0.000001516
      4        6           0.000017073   -0.000074150   -0.000028759
      5        8           0.000006536   -0.000009817    0.000002801
      6        6           0.000002454   -0.000038213   -0.000036124
      7        7          -0.000124311    0.000016475   -0.000080714
      8        6          -0.000008803   -0.000051444    0.000035751
      9        6           0.000002581    0.000004761    0.000017358
     10        6           0.000036134   -0.000002165   -0.000013856
     11        1          -0.000015414    0.000020567   -0.000017844
     12        1           0.000000715    0.000002482   -0.000000583
     13        7           0.000179754    0.000046533   -0.000057459
     14        6           0.000128999   -0.000118301    0.000093672
     15        6          -0.001328702    0.000002447    0.000065966
     16        6           0.000364359    0.000146729   -0.000046384
     17        6          -0.000127666    0.000060968    0.000011056
     18        6           0.000443147    0.000119387    0.000045045
     19        1           0.000024593    0.000032319   -0.000008319
     20        1           0.000252405   -0.000098292   -0.000102638
     21        7          -0.000047129    0.000025030   -0.000002945
     22        6           0.000000142   -0.000030466   -0.000011595
     23        6           0.000002626    0.000011300   -0.000004923
     24        1          -0.000045338   -0.000015195    0.000039865
     25        6          -0.000005000   -0.000013758   -0.000008838
     26        1          -0.000005343   -0.000008077   -0.000001846
     27        6           0.000029326    0.000015742    0.000004868
     28        1           0.000008082   -0.000003866   -0.000008434
     29        1          -0.000006146   -0.000006437    0.000000310
     30        8           0.000003377    0.000020294    0.000013483
     31        6           0.000047129    0.000002404    0.000119457
     32        6           0.000018380    0.000023152   -0.000046581
     33        6           0.000012339    0.000024147    0.000022781
     34        6           0.000026244    0.000013229   -0.000030211
     35        6          -0.000009174    0.000006771   -0.000004739
     36        6           0.000000149    0.000004839    0.000008812
     37        6           0.000009120    0.000005488   -0.000007614
     38        6          -0.000018004    0.000001243    0.000024997
     39        6          -0.000023017    0.000021046   -0.000036982
     40        1          -0.000000267    0.000002772    0.000002290
     41        1           0.000004237    0.000004883    0.000003731
     42        1           0.000003449    0.000005516   -0.000002183
     43        6           0.000004140   -0.000006054    0.000029765
     44        6           0.000008446    0.000004562   -0.000000323
     45        6           0.000002158    0.000003759   -0.000004727
     46        6          -0.000005012    0.000005066    0.000000270
     47        6           0.000001260    0.000002402    0.000009849
     48        6           0.000006407    0.000009100   -0.000030823
     49        1          -0.000003623    0.000005578   -0.000000004
     50        1           0.000000598    0.000006542    0.000000306
     51        1          -0.000004594    0.000003551   -0.000002573
     52        6          -0.000003059   -0.000010091   -0.000015954
     53        1           0.000001345    0.000002731   -0.000003312
     54        6          -0.000000781   -0.000022349   -0.000004495
     55        1           0.000002880    0.000000975   -0.000005788
     56        1          -0.000002563    0.000003235    0.000002946
     57        6           0.000118290    0.000043796   -0.000008299
     58        6           0.000019534   -0.000154719   -0.000000571
     59        1          -0.000005946   -0.000011741    0.000000494
     60        1          -0.000003479   -0.000006192   -0.000001946
     61       35           0.000002102    0.000024260    0.000010414
     62        1           0.000050916    0.000002710   -0.000022673
     63        1           0.000004888   -0.000008300    0.000009861
 -------------------------------------------------------------------
 Cartesian Forces:  Max     0.001328702 RMS     0.000114152
 NDeriv=    189 NFrqRd=  0 NDerD0=      0 MskFDP=       0 MskDFD=       0 MskDF0=       0
 Re-enter D2Numr:  atom  15 IXYZ=1 step-up   number 1
 Basis read from rwf:  (5D, 7F)
   751 basis functions,  1339 primitive gaussians,   802 cartesian basis functions
   165 alpha electrons      165 beta electrons
       nuclear repulsion energy      5860.1790812643 Hartrees.
 NAtoms=   63 NActive=   63 NUniq=   63 SFac= 1.00D+00 NAtFMM=   60 NAOKFM=T Big=T
 Integral buffers will be    131072 words long.
 Raffenetti 2 integral format.
 Two-electron integral symmetry is turned off.
 Nuclear repulsion after empirical dispersion term =     5860.1160125892 Hartrees.
 ------------------------------------------------------------------------------
 Polarizable Continuum Model (PCM)
 =================================
 Model                : PCM.
 Atomic radii         : UFF (Universal Force Field).
 Polarization charges : Total charges.
 Charge compensation  : None.
 Solution method      : On-the-fly selection.
 Cavity type          : Scaled VdW (van der Waals Surface) (Alpha=1.100).
 Cavity algorithm     : GePol (No added spheres)
                        Default sphere list used, NSphG=   63.
                        Lebedev-Laikov grids with approx.  5.0 points / Ang**2.
                        Smoothing algorithm: York/Karplus (Gamma=1.0000).
                        Polarization charges: spherical gaussians, with
                                              point-specific exponents (IZeta= 3).
                        Self-potential: point-specific (ISelfS= 7).
                        Self-field    : sphere-specific E.n sum rule (ISelfD= 2).
 1st derivatives      : Analytical E(r).r(x)/FMM algorithm (CHGder, D1EAlg=3).
                        Cavity 1st derivative terms included.
 Solvent              : TetraHydroFuran, Eps=   7.425700 Eps(inf)=   1.974025
 ------------------------------------------------------------------------------
 One-electron integrals computed using PRISM.
 NBasis=   751 RedAO= T EigKep=  2.24D-04  NBF=   751
 NBsUse=   751 1.00D-06 EigRej= -1.00D+00 NBFU=   751
 Initial guess from the checkpoint file:  "checkpoint.chk"
 B after Tr=    -0.000034   -0.000000   -0.000000
         Rot=    1.000000   -0.000000    0.000000   -0.000002 Ang=   0.00 deg.
 Requested convergence on RMS density matrix=1.00D-08 within 128 cycles.
 Requested convergence on MAX density matrix=1.00D-06.
 Requested convergence on             energy=1.00D-06.
 No special actions if energy rises.
 Inv3:  Mode=1 IEnd=    73864332.
 Iteration    1 A*A^-1 deviation from unit magnitude is 3.00D-15 for   3566.
 Iteration    1 A*A^-1 deviation from orthogonality  is 2.33D-15 for   4449   1353.
 Iteration    1 A^-1*A deviation from unit magnitude is 3.33D-15 for   3566.
 Iteration    1 A^-1*A deviation from orthogonality  is 2.89D-15 for   3621   1304.
 Error on total polarization charges =  0.02143
 SCF Done:  E(RwB97XD) =  -5421.44459989     A.U. after    9 cycles
            NFock=  9  Conv=0.30D-08     -V/T= 2.0041

 **********************************************************************

            Population analysis using the SCF density.

 **********************************************************************

 Alpha  occ. eigenvalues -- -482.95451-235.70868 -62.53492 -56.34054 -56.34042
 Alpha  occ. eigenvalues --  -56.34037 -27.47536 -23.53468 -23.53109 -23.53047
 Alpha  occ. eigenvalues --  -19.34579 -19.34549 -19.34480 -14.50816 -14.50808
 Alpha  occ. eigenvalues --  -14.46642 -10.42153 -10.42149 -10.42107 -10.37155
 Alpha  occ. eigenvalues --  -10.37146 -10.36612 -10.36597 -10.36291 -10.35592
 Alpha  occ. eigenvalues --  -10.34657 -10.34642 -10.34559 -10.34550 -10.33579
 Alpha  occ. eigenvalues --  -10.33563 -10.33449 -10.33343 -10.33330 -10.33279
 Alpha  occ. eigenvalues --  -10.33273 -10.33244 -10.32880 -10.32874 -10.32637
 Alpha  occ. eigenvalues --  -10.32390 -10.32331 -10.32322 -10.32278 -10.32115
 Alpha  occ. eigenvalues --  -10.32032 -10.32002 -10.31995 -10.31849 -10.31845
 Alpha  occ. eigenvalues --   -8.70244  -6.51946  -6.51911  -6.51894  -3.26993
 Alpha  occ. eigenvalues --   -2.62450  -2.62444  -2.62430  -2.62402  -2.62400
 Alpha  occ. eigenvalues --   -2.12858  -2.11933  -2.11838  -1.23595  -1.23522
 Alpha  occ. eigenvalues --   -1.23338  -1.08600  -1.08292  -1.02155  -1.00303
 Alpha  occ. eigenvalues --   -0.97881  -0.97631  -0.94480  -0.93281  -0.91392
 Alpha  occ. eigenvalues --   -0.90866  -0.89860  -0.88164  -0.87492  -0.86417
 Alpha  occ. eigenvalues --   -0.85280  -0.85010  -0.81928  -0.76800  -0.75890
 Alpha  occ. eigenvalues --   -0.75416  -0.75397  -0.74759  -0.74595  -0.74404
 Alpha  occ. eigenvalues --   -0.72311  -0.72002  -0.70290  -0.69012  -0.68211
 Alpha  occ. eigenvalues --   -0.65748  -0.65265  -0.65173  -0.64939  -0.64543
 Alpha  occ. eigenvalues --   -0.64525  -0.62674  -0.62128  -0.61074  -0.60185
 Alpha  occ. eigenvalues --   -0.59145  -0.58430  -0.57661  -0.57535  -0.57259
 Alpha  occ. eigenvalues --   -0.56934  -0.56634  -0.56504  -0.56108  -0.55969
 Alpha  occ. eigenvalues --   -0.55729  -0.55289  -0.54924  -0.54846  -0.54461
 Alpha  occ. eigenvalues --   -0.54383  -0.54049  -0.53365  -0.52996  -0.52542
 Alpha  occ. eigenvalues --   -0.52476  -0.52469  -0.51995  -0.51303  -0.51259
 Alpha  occ. eigenvalues --   -0.51137  -0.51126  -0.50556  -0.49464  -0.49101
 Alpha  occ. eigenvalues --   -0.48548  -0.47988  -0.47408  -0.47317  -0.46044
 Alpha  occ. eigenvalues --   -0.45762  -0.45145  -0.44922  -0.43754  -0.43719
 Alpha  occ. eigenvalues --   -0.43388  -0.42442  -0.41856  -0.41242  -0.40727
 Alpha  occ. eigenvalues --   -0.40365  -0.39660  -0.37837  -0.36580  -0.35653
 Alpha  occ. eigenvalues --   -0.35163  -0.33665  -0.33579  -0.33351  -0.33256
 Alpha  occ. eigenvalues --   -0.32218  -0.29676  -0.29549  -0.29260  -0.28006
 Alpha virt. eigenvalues --   -0.03076  -0.00631  -0.00225   0.00667   0.00885
 Alpha virt. eigenvalues --    0.01822   0.01972   0.02429   0.03948   0.04362
 Alpha virt. eigenvalues --    0.04411   0.06215   0.06763   0.06933   0.08994
 Alpha virt. eigenvalues --    0.09087   0.09320   0.09653   0.10278   0.10457
 Alpha virt. eigenvalues --    0.11514   0.12855   0.13150   0.13653   0.14138
 Alpha virt. eigenvalues --    0.14328   0.14515   0.15208   0.15299   0.15869
 Alpha virt. eigenvalues --    0.15969   0.16678   0.17421   0.17930   0.18748
 Alpha virt. eigenvalues --    0.18765   0.19435   0.19560   0.19965   0.20426
 Alpha virt. eigenvalues --    0.20692   0.21554   0.21948   0.22204   0.22549
 Alpha virt. eigenvalues --    0.22634   0.23076   0.23347   0.23565   0.24793
 Alpha virt. eigenvalues --    0.25805   0.26055   0.26284   0.27058   0.27633
 Alpha virt. eigenvalues --    0.28224   0.29138   0.29833   0.29958   0.30299
 Alpha virt. eigenvalues --    0.30590   0.31066   0.31322   0.31849   0.32138
 Alpha virt. eigenvalues --    0.32259   0.32387   0.32952   0.33573   0.33858
 Alpha virt. eigenvalues --    0.34153   0.34548   0.34959   0.35259   0.35505
 Alpha virt. eigenvalues --    0.35739   0.35874   0.36107   0.36535   0.36617
 Alpha virt. eigenvalues --    0.37668   0.37774   0.38516   0.38714   0.39173
 Alpha virt. eigenvalues --    0.39992   0.40344   0.41294   0.41500   0.42061
 Alpha virt. eigenvalues --    0.42085   0.42416   0.42830   0.44052   0.44123
 Alpha virt. eigenvalues --    0.44658   0.45435   0.45903   0.46661   0.47142
 Alpha virt. eigenvalues --    0.47614   0.47851   0.48131   0.48198   0.48660
 Alpha virt. eigenvalues --    0.49957   0.50343   0.50642   0.50977   0.51237
 Alpha virt. eigenvalues --    0.51387   0.51829   0.52337   0.52571   0.52721
 Alpha virt. eigenvalues --    0.52929   0.53258   0.53613   0.54217   0.54538
 Alpha virt. eigenvalues --    0.54716   0.54938   0.55108   0.55695   0.56045
 Alpha virt. eigenvalues --    0.56168   0.56612   0.57290   0.57442   0.57613
 Alpha virt. eigenvalues --    0.58117   0.58841   0.59167   0.60148   0.60188
 Alpha virt. eigenvalues --    0.60482   0.60537   0.61090   0.61536   0.61562
 Alpha virt. eigenvalues --    0.61655   0.63252   0.63679   0.64164   0.64797
 Alpha virt. eigenvalues --    0.64870   0.65513   0.65575   0.66398   0.66853
 Alpha virt. eigenvalues --    0.67113   0.67513   0.67782   0.67969   0.68594
 Alpha virt. eigenvalues --    0.68665   0.69960   0.70448   0.70464   0.70838
 Alpha virt. eigenvalues --    0.71291   0.71714   0.71841   0.71962   0.72437
 Alpha virt. eigenvalues --    0.72724   0.72906   0.73015   0.73390   0.73444
 Alpha virt. eigenvalues --    0.73852   0.74054   0.74406   0.74728   0.74773
 Alpha virt. eigenvalues --    0.75330   0.75493   0.75677   0.75864   0.76424
 Alpha virt. eigenvalues --    0.76804   0.77012   0.77093   0.77678   0.78345
 Alpha virt. eigenvalues --    0.78428   0.78799   0.79081   0.79464   0.79630
 Alpha virt. eigenvalues --    0.80319   0.80483   0.80641   0.81158   0.81562
 Alpha virt. eigenvalues --    0.81687   0.81748   0.82534   0.82827   0.83703
 Alpha virt. eigenvalues --    0.83883   0.83944   0.84180   0.84541   0.84952
 Alpha virt. eigenvalues --    0.85264   0.85470   0.85590   0.86366   0.86932
 Alpha virt. eigenvalues --    0.86981   0.87336   0.87585   0.87834   0.88091
 Alpha virt. eigenvalues --    0.88432   0.89181   0.89270   0.90110   0.90254
 Alpha virt. eigenvalues --    0.90399   0.91415   0.91567   0.91688   0.92312
 Alpha virt. eigenvalues --    0.93825   0.94113   0.94329   0.94615   0.95171
 Alpha virt. eigenvalues --    0.95552   0.95789   0.96400   0.96945   0.97912
 Alpha virt. eigenvalues --    0.98167   0.98770   0.99049   0.99927   1.01484
 Alpha virt. eigenvalues --    1.01651   1.02259   1.03321   1.04783   1.04870
 Alpha virt. eigenvalues --    1.06581   1.07488   1.08879   1.09256   1.09528
 Alpha virt. eigenvalues --    1.10998   1.11360   1.13138   1.13660   1.14651
 Alpha virt. eigenvalues --    1.14828   1.15075   1.15865   1.16045   1.16211
 Alpha virt. eigenvalues --    1.16940   1.17831   1.18102   1.20812   1.21678
 Alpha virt. eigenvalues --    1.22020   1.22399   1.22964   1.24406   1.24561
 Alpha virt. eigenvalues --    1.24946   1.25172   1.25642   1.26220   1.26293
 Alpha virt. eigenvalues --    1.27537   1.27952   1.28438   1.28486   1.29548
 Alpha virt. eigenvalues --    1.29717   1.30257   1.30696   1.30740   1.30906
 Alpha virt. eigenvalues --    1.31492   1.32315   1.33091   1.33682   1.33904
 Alpha virt. eigenvalues --    1.34207   1.34448   1.34790   1.35320   1.35557
 Alpha virt. eigenvalues --    1.35871   1.35894   1.36200   1.37548   1.37661
 Alpha virt. eigenvalues --    1.38225   1.38353   1.38528   1.40219   1.40708
 Alpha virt. eigenvalues --    1.41966   1.42184   1.43185   1.43370   1.44535
 Alpha virt. eigenvalues --    1.45456   1.46746   1.48076   1.48175   1.49403
 Alpha virt. eigenvalues --    1.50470   1.54890   1.55601   1.55678   1.58904
 Alpha virt. eigenvalues --    1.59142   1.59885   1.62371   1.63631   1.64308
 Alpha virt. eigenvalues --    1.64907   1.65581   1.66563   1.67562   1.67773
 Alpha virt. eigenvalues --    1.68770   1.69730   1.70941   1.71703   1.72026
 Alpha virt. eigenvalues --    1.72838   1.73019   1.73258   1.73685   1.73806
 Alpha virt. eigenvalues --    1.74428   1.74744   1.75046   1.75481   1.76003
 Alpha virt. eigenvalues --    1.77226   1.77266   1.78100   1.78469   1.78661
 Alpha virt. eigenvalues --    1.78734   1.79401   1.79548   1.79944   1.80022
 Alpha virt. eigenvalues --    1.80390   1.80907   1.81462   1.81628   1.81799
 Alpha virt. eigenvalues --    1.81934   1.82100   1.82234   1.82644   1.82946
 Alpha virt. eigenvalues --    1.83420   1.84108   1.84304   1.84702   1.84877
 Alpha virt. eigenvalues --    1.85666   1.86099   1.86402   1.87096   1.87412
 Alpha virt. eigenvalues --    1.87653   1.87872   1.88295   1.89699   1.89768
 Alpha virt. eigenvalues --    1.90380   1.90384   1.91078   1.91253   1.91853
 Alpha virt. eigenvalues --    1.93363   1.94161   1.94321   1.95549   1.96082
 Alpha virt. eigenvalues --    1.96776   1.97088   1.97575   1.98316   1.99283
 Alpha virt. eigenvalues --    1.99390   2.00591   2.01152   2.01432   2.02203
 Alpha virt. eigenvalues --    2.02566   2.02833   2.03215   2.03866   2.04509
 Alpha virt. eigenvalues --    2.04823   2.04988   2.05423   2.05736   2.06135
 Alpha virt. eigenvalues --    2.06933   2.07932   2.09214   2.10064   2.10351
 Alpha virt. eigenvalues --    2.10931   2.11070   2.11847   2.12283   2.13924
 Alpha virt. eigenvalues --    2.14629   2.15516   2.15827   2.16620   2.16714
 Alpha virt. eigenvalues --    2.16842   2.17880   2.18162   2.18592   2.19588
 Alpha virt. eigenvalues --    2.20334   2.20570   2.20888   2.21322   2.21566
 Alpha virt. eigenvalues --    2.23280   2.23575   2.24383   2.24517   2.25804
 Alpha virt. eigenvalues --    2.26114   2.29371   2.29966   2.30737   2.31367
 Alpha virt. eigenvalues --    2.31464   2.31667   2.32820   2.33452   2.34419
 Alpha virt. eigenvalues --    2.34992   2.35842   2.36062   2.36679   2.37396
 Alpha virt. eigenvalues --    2.37640   2.37773   2.38132   2.38456   2.38839
 Alpha virt. eigenvalues --    2.39565   2.39698   2.41333   2.41785   2.42684
 Alpha virt. eigenvalues --    2.44070   2.45206   2.45228   2.46164   2.46723
 Alpha virt. eigenvalues --    2.47509   2.48029   2.49901   2.49976   2.50721
 Alpha virt. eigenvalues --    2.53627   2.54881   2.56236   2.57333   2.59235
 Alpha virt. eigenvalues --    2.60221   2.60990   2.61535   2.63768   2.64676
 Alpha virt. eigenvalues --    2.65771   2.65964   2.66727   2.67014   2.67569
 Alpha virt. eigenvalues --    2.67639   2.68241   2.69480   2.69821   2.69877
 Alpha virt. eigenvalues --    2.70036   2.70324   2.70408   2.70890   2.71111
 Alpha virt. eigenvalues --    2.72107   2.72445   2.72721   2.74323   2.74770
 Alpha virt. eigenvalues --    2.75737   2.77015   2.79231   2.79454   2.80059
 Alpha virt. eigenvalues --    2.80125   2.80337   2.80464   2.81824   2.82261
 Alpha virt. eigenvalues --    2.84526   2.85249   2.85777   2.86413   2.87058
 Alpha virt. eigenvalues --    2.87178   2.89628   2.91418   2.91879   2.94575
 Alpha virt. eigenvalues --    2.95897   2.97864   2.98469   2.99067   3.01341
 Alpha virt. eigenvalues --    3.02742   3.05011   3.05838   3.06159   3.07096
 Alpha virt. eigenvalues --    3.08621   3.09696   3.10236   3.11774   3.12512
 Alpha virt. eigenvalues --    3.15831   3.16232   3.19168   3.19723   3.20318
 Alpha virt. eigenvalues --    3.20731   3.20962   3.21895   3.22245   3.24163
 Alpha virt. eigenvalues --    3.24722   3.29757   3.29915   3.32662   3.32888
 Alpha virt. eigenvalues --    3.38114   3.39031   3.41616   3.45667   3.45952
 Alpha virt. eigenvalues --    3.47220   3.50718   3.52352   3.55480   3.58474
 Alpha virt. eigenvalues --    3.60568   3.62393   3.63151   3.63233   3.63510
 Alpha virt. eigenvalues --    3.63826   3.65785   3.66480   3.71965   3.72713
 Alpha virt. eigenvalues --    3.75737   3.75935   3.76577   3.78847   3.79451
 Alpha virt. eigenvalues --    3.82130   3.85097   3.92417   3.95062   4.02492
 Alpha virt. eigenvalues --    4.08528
 Electronic spatial extent (au):  <R**2>=          25433.7400
 Charge=             -0.0000 electrons
 Dipole moment (field-independent basis, Debye):
    X=             19.7653    Y=             14.4246    Z=              0.2460  Tot=             24.4704
 Quadrupole moment (field-independent basis, Debye-Ang):
   XX=           -308.1978   YY=           -250.2990   ZZ=           -219.8937
   XY=            -55.8797   XZ=             -1.6749   YZ=             -1.4348
 Traceless Quadrupole moment (field-independent basis, Debye-Ang):
   XX=            -48.7343   YY=              9.1645   ZZ=             39.5698
   XY=            -55.8797   XZ=             -1.6749   YZ=             -1.4348
 Octapole moment (field-independent basis, Debye-Ang**2):
  XXX=            512.4588  YYY=            116.0659  ZZZ=              1.9770  XYY=           -130.6547
  XXY=            290.6832  XXZ=             12.2610  XZZ=             49.7742  YZZ=             10.7663
  YYZ=             -2.9599  XYZ=            -10.4952
 Hexadecapole moment (field-independent basis, Debye-Ang**3):
 XXXX=         -19177.9111 YYYY=          -7166.4732 ZZZZ=          -5533.8356 XXXY=          -1221.7208
 XXXZ=            -63.8944 YYYX=           -623.1432 YYYZ=             13.5492 ZZZX=             11.9120
 ZZZY=            -32.1610 XXYY=          -4544.9660 XXZZ=          -3815.2972 YYZZ=          -2544.3324
 XXYZ=             17.9142 YYXZ=            -30.3691 ZZXY=            133.5010
 N-N= 5.860116012589D+03 E-N=-2.454763414553D+04  KE= 5.399270431511D+03
 D1PCM: PCM CHGder 1st derivatives, ID1Alg=3 FixD1E=F DoIter=F DoCFld=F I1PDM=0.
 Calling FoFJK, ICntrl=      2127 FMM=T ISym2X=0 I1Cent= 0 IOpClX= 0 NMat=1 NMatS=1 NMatT=0.
 -------------------------------------------------------------------
 Center     Atomic                   Forces (Hartrees/Bohr)
 Number     Number              X              Y              Z
 -------------------------------------------------------------------
      1       25          -0.000069027   -0.000052195    0.000093092
      2        6           0.000022322   -0.000027511   -0.000009558
      3        8          -0.000005467    0.000010426    0.000001376
      4        6           0.000017418   -0.000074103   -0.000028907
      5        8           0.000006377   -0.000009942    0.000002944
      6        6           0.000002499   -0.000038327   -0.000036135
      7        7          -0.000124389    0.000016378   -0.000080157
      8        6          -0.000008916   -0.000051802    0.000035745
      9        6           0.000002505    0.000004695    0.000017339
     10        6           0.000036004   -0.000002138   -0.000013850
     11        1          -0.000015396    0.000020619   -0.000017857
     12        1           0.000000714    0.000002496   -0.000000577
     13        7           0.000235932    0.000105561   -0.000057034
     14        6          -0.000317414    0.000164947    0.000110903
     15        6           0.001235446   -0.000022750   -0.000143425
     16        6          -0.000435598   -0.000138851    0.000014978
     17        6           0.000114917   -0.000093744   -0.000008069
     18        6          -0.000813170    0.000063551    0.000150620
     19        1          -0.000015667   -0.000061307   -0.000001080
     20        1           0.000209344   -0.000072068   -0.000097100
     21        7          -0.000047143    0.000024917   -0.000003552
     22        6           0.000000030   -0.000030829   -0.000011642
     23        6           0.000002536    0.000011221   -0.000004906
     24        1          -0.000045329   -0.000015132    0.000039905
     25        6          -0.000004167   -0.000014146   -0.000008795
     26        1          -0.000005309   -0.000008065   -0.000001658
     27        6           0.000030156    0.000015376    0.000004850
     28        1           0.000008174   -0.000003820   -0.000008671
     29        1          -0.000005805    0.000004872    0.000002999
     30        8           0.000003303    0.000020361    0.000013488
     31        6           0.000047065    0.000002386    0.000119460
     32        6           0.000018383    0.000023149   -0.000046580
     33        6           0.000012302    0.000024125    0.000022705
     34        6           0.000026237    0.000013231   -0.000030202
     35        6          -0.000009163    0.000006765   -0.000004739
     36        6           0.000000150    0.000004841    0.000008805
     37        6           0.000009126    0.000005486   -0.000007611
     38        6          -0.000017993    0.000001245    0.000025000
     39        6          -0.000022983    0.000021050   -0.000037000
     40        1          -0.000000273    0.000002774    0.000002293
     41        1           0.000004242    0.000004885    0.000003734
     42        1           0.000003451    0.000005517   -0.000002183
     43        6           0.000004180   -0.000006050    0.000029777
     44        6           0.000008458    0.000004565   -0.000000327
     45        6           0.000002168    0.000003758   -0.000004730
     46        6          -0.000005012    0.000005069    0.000000281
     47        6           0.000001279    0.000002397    0.000009849
     48        6           0.000006389    0.000009098   -0.000030833
     49        1          -0.000003621    0.000005579   -0.000000003
     50        1           0.000000603    0.000006544    0.000000303
     51        1          -0.000004601    0.000003553   -0.000002573
     52        6          -0.000003094   -0.000010108   -0.000015867
     53        1           0.000001345    0.000002746   -0.000003322
     54        6          -0.000000945   -0.000022331   -0.000004495
     55        1           0.000002878    0.000000997   -0.000005804
     56        1          -0.000002569    0.000003259    0.000002962
     57        6          -0.000126688   -0.000056221    0.000015641
     58        6          -0.000017412    0.000177358    0.000001705
     59        1          -0.000000833   -0.000005489    0.000002758
     60        1          -0.000006759   -0.000008819   -0.000001896
     61       35           0.000003021    0.000025530    0.000010444
     62        1           0.000050920    0.000002710   -0.000022673
     63        1           0.000004869   -0.000008289    0.000009854
 -------------------------------------------------------------------
 Cartesian Forces:  Max     0.001235446 RMS     0.000123685
 NDeriv=    189 NFrqRd=  0 NDerD0=      0 MskFDP=       0 MskDFD=       0 MskDF0=       0
 Re-enter D2Numr:  atom  15 IXYZ=1 step-down number 1
 Basis read from rwf:  (5D, 7F)
   751 basis functions,  1339 primitive gaussians,   802 cartesian basis functions
   165 alpha electrons      165 beta electrons
       nuclear repulsion energy      5860.1762676070 Hartrees.
 NAtoms=   63 NActive=   63 NUniq=   63 SFac= 1.00D+00 NAtFMM=   60 NAOKFM=T Big=T
 Integral buffers will be    131072 words long.
 Raffenetti 2 integral format.
 Two-electron integral symmetry is turned off.
 Nuclear repulsion after empirical dispersion term =     5860.1131991359 Hartrees.
 ------------------------------------------------------------------------------
 Polarizable Continuum Model (PCM)
 =================================
 Model                : PCM.
 Atomic radii         : UFF (Universal Force Field).
 Polarization charges : Total charges.
 Charge compensation  : None.
 Solution method      : On-the-fly selection.
 Cavity type          : Scaled VdW (van der Waals Surface) (Alpha=1.100).
 Cavity algorithm     : GePol (No added spheres)
                        Default sphere list used, NSphG=   63.
                        Lebedev-Laikov grids with approx.  5.0 points / Ang**2.
                        Smoothing algorithm: York/Karplus (Gamma=1.0000).
                        Polarization charges: spherical gaussians, with
                                              point-specific exponents (IZeta= 3).
                        Self-potential: point-specific (ISelfS= 7).
                        Self-field    : sphere-specific E.n sum rule (ISelfD= 2).
 1st derivatives      : Analytical E(r).r(x)/FMM algorithm (CHGder, D1EAlg=3).
                        Cavity 1st derivative terms included.
 Solvent              : TetraHydroFuran, Eps=   7.425700 Eps(inf)=   1.974025
 ------------------------------------------------------------------------------
 One-electron integrals computed using PRISM.
 NBasis=   751 RedAO= T EigKep=  2.24D-04  NBF=   751
 NBsUse=   751 1.00D-06 EigRej= -1.00D+00 NBFU=   751
 Initial guess from the checkpoint file:  "checkpoint.chk"
 B after Tr=    -0.000000    0.000034    0.000000
         Rot=    1.000000    0.000000   -0.000000    0.000002 Ang=   0.00 deg.
 Requested convergence on RMS density matrix=1.00D-08 within 128 cycles.
 Requested convergence on MAX density matrix=1.00D-06.
 Requested convergence on             energy=1.00D-06.
 No special actions if energy rises.
 Inv3:  Mode=1 IEnd=    73864332.
 Iteration    1 A*A^-1 deviation from unit magnitude is 3.00D-15 for   3563.
 Iteration    1 A*A^-1 deviation from orthogonality  is 2.66D-15 for   3529    639.
 Iteration    1 A^-1*A deviation from unit magnitude is 3.22D-15 for   1849.
 Iteration    1 A^-1*A deviation from orthogonality  is 2.20D-15 for   3933   3605.
 Error on total polarization charges =  0.02143
 SCF Done:  E(RwB97XD) =  -5421.44459975     A.U. after    8 cycles
            NFock=  8  Conv=0.75D-08     -V/T= 2.0041

 **********************************************************************

            Population analysis using the SCF density.

 **********************************************************************

 Alpha  occ. eigenvalues -- -482.95450-235.70868 -62.53491 -56.34054 -56.34042
 Alpha  occ. eigenvalues --  -56.34037 -27.47536 -23.53468 -23.53109 -23.53047
 Alpha  occ. eigenvalues --  -19.34579 -19.34549 -19.34480 -14.50816 -14.50808
 Alpha  occ. eigenvalues --  -14.46642 -10.42153 -10.42149 -10.42107 -10.37155
 Alpha  occ. eigenvalues --  -10.37146 -10.36612 -10.36597 -10.36292 -10.35593
 Alpha  occ. eigenvalues --  -10.34658 -10.34642 -10.34560 -10.34550 -10.33579
 Alpha  occ. eigenvalues --  -10.33563 -10.33438 -10.33343 -10.33330 -10.33279
 Alpha  occ. eigenvalues --  -10.33273 -10.33248 -10.32880 -10.32874 -10.32635
 Alpha  occ. eigenvalues --  -10.32389 -10.32331 -10.32322 -10.32277 -10.32115
 Alpha  occ. eigenvalues --  -10.32032 -10.32002 -10.31995 -10.31849 -10.31845
 Alpha  occ. eigenvalues --   -8.70244  -6.51946  -6.51911  -6.51893  -3.26993
 Alpha  occ. eigenvalues --   -2.62450  -2.62444  -2.62430  -2.62402  -2.62400
 Alpha  occ. eigenvalues --   -2.12858  -2.11933  -2.11838  -1.23595  -1.23522
 Alpha  occ. eigenvalues --   -1.23338  -1.08601  -1.08293  -1.02153  -1.00303
 Alpha  occ. eigenvalues --   -0.97886  -0.97631  -0.94480  -0.93281  -0.91392
 Alpha  occ. eigenvalues --   -0.90867  -0.89860  -0.88161  -0.87492  -0.86419
 Alpha  occ. eigenvalues --   -0.85280  -0.85010  -0.81928  -0.76800  -0.75890
 Alpha  occ. eigenvalues --   -0.75416  -0.75397  -0.74751  -0.74595  -0.74404
 Alpha  occ. eigenvalues --   -0.72311  -0.72005  -0.70290  -0.69012  -0.68211
 Alpha  occ. eigenvalues --   -0.65748  -0.65265  -0.65173  -0.64939  -0.64543
 Alpha  occ. eigenvalues --   -0.64525  -0.62674  -0.62128  -0.61074  -0.60185
 Alpha  occ. eigenvalues --   -0.59140  -0.58430  -0.57661  -0.57535  -0.57260
 Alpha  occ. eigenvalues --   -0.56934  -0.56634  -0.56504  -0.56108  -0.55969
 Alpha  occ. eigenvalues --   -0.55729  -0.55289  -0.54924  -0.54846  -0.54461
 Alpha  occ. eigenvalues --   -0.54383  -0.54049  -0.53365  -0.52999  -0.52542
 Alpha  occ. eigenvalues --   -0.52477  -0.52469  -0.51995  -0.51303  -0.51259
 Alpha  occ. eigenvalues --   -0.51137  -0.51126  -0.50556  -0.49464  -0.49101
 Alpha  occ. eigenvalues --   -0.48548  -0.47988  -0.47408  -0.47317  -0.46043
 Alpha  occ. eigenvalues --   -0.45760  -0.45144  -0.44922  -0.43755  -0.43720
 Alpha  occ. eigenvalues --   -0.43391  -0.42443  -0.41857  -0.41242  -0.40727
 Alpha  occ. eigenvalues --   -0.40365  -0.39660  -0.37836  -0.36581  -0.35654
 Alpha  occ. eigenvalues --   -0.35165  -0.33665  -0.33579  -0.33351  -0.33256
 Alpha  occ. eigenvalues --   -0.32218  -0.29676  -0.29549  -0.29260  -0.28006
 Alpha virt. eigenvalues --   -0.03076  -0.00631  -0.00221   0.00669   0.00885
 Alpha virt. eigenvalues --    0.01822   0.01973   0.02429   0.03947   0.04362
 Alpha virt. eigenvalues --    0.04411   0.06215   0.06763   0.06933   0.08995
 Alpha virt. eigenvalues --    0.09091   0.09320   0.09652   0.10278   0.10457
 Alpha virt. eigenvalues --    0.11514   0.12853   0.13149   0.13653   0.14136
 Alpha virt. eigenvalues --    0.14328   0.14515   0.15208   0.15300   0.15869
 Alpha virt. eigenvalues --    0.15969   0.16678   0.17420   0.17927   0.18748
 Alpha virt. eigenvalues --    0.18765   0.19435   0.19560   0.19965   0.20426
 Alpha virt. eigenvalues --    0.20692   0.21554   0.21948   0.22205   0.22548
 Alpha virt. eigenvalues --    0.22633   0.23076   0.23346   0.23563   0.24793
 Alpha virt. eigenvalues --    0.25805   0.26055   0.26284   0.27058   0.27633
 Alpha virt. eigenvalues --    0.28224   0.29137   0.29832   0.29958   0.30295
 Alpha virt. eigenvalues --    0.30590   0.31064   0.31320   0.31847   0.32137
 Alpha virt. eigenvalues --    0.32259   0.32386   0.32952   0.33573   0.33858
 Alpha virt. eigenvalues --    0.34153   0.34551   0.34959   0.35260   0.35507
 Alpha virt. eigenvalues --    0.35740   0.35878   0.36107   0.36535   0.36617
 Alpha virt. eigenvalues --    0.37666   0.37774   0.38516   0.38711   0.39173
 Alpha virt. eigenvalues --    0.39992   0.40344   0.41292   0.41500   0.42061
 Alpha virt. eigenvalues --    0.42084   0.42416   0.42828   0.44052   0.44123
 Alpha virt. eigenvalues --    0.44658   0.45435   0.45903   0.46661   0.47142
 Alpha virt. eigenvalues --    0.47615   0.47850   0.48131   0.48198   0.48660
 Alpha virt. eigenvalues --    0.49958   0.50343   0.50642   0.50975   0.51237
 Alpha virt. eigenvalues --    0.51387   0.51830   0.52335   0.52572   0.52721
 Alpha virt. eigenvalues --    0.52928   0.53258   0.53613   0.54217   0.54538
 Alpha virt. eigenvalues --    0.54719   0.54939   0.55107   0.55695   0.56045
 Alpha virt. eigenvalues --    0.56168   0.56612   0.57290   0.57442   0.57614
 Alpha virt. eigenvalues --    0.58117   0.58841   0.59167   0.60149   0.60188
 Alpha virt. eigenvalues --    0.60481   0.60537   0.61090   0.61536   0.61562
 Alpha virt. eigenvalues --    0.61655   0.63252   0.63679   0.64163   0.64798
 Alpha virt. eigenvalues --    0.64870   0.65514   0.65575   0.66406   0.66858
 Alpha virt. eigenvalues --    0.67113   0.67513   0.67783   0.67970   0.68593
 Alpha virt. eigenvalues --    0.68665   0.69960   0.70448   0.70463   0.70837
 Alpha virt. eigenvalues --    0.71293   0.71714   0.71841   0.71961   0.72437
 Alpha virt. eigenvalues --    0.72724   0.72907   0.73016   0.73390   0.73445
 Alpha virt. eigenvalues --    0.73851   0.74054   0.74406   0.74728   0.74774
 Alpha virt. eigenvalues --    0.75331   0.75492   0.75675   0.75864   0.76425
 Alpha virt. eigenvalues --    0.76804   0.77012   0.77090   0.77677   0.78345
 Alpha virt. eigenvalues --    0.78428   0.78798   0.79081   0.79464   0.79629
 Alpha virt. eigenvalues --    0.80320   0.80483   0.80641   0.81161   0.81564
 Alpha virt. eigenvalues --    0.81688   0.81748   0.82534   0.82828   0.83703
 Alpha virt. eigenvalues --    0.83882   0.83943   0.84179   0.84541   0.84952
 Alpha virt. eigenvalues --    0.85264   0.85470   0.85590   0.86366   0.86932
 Alpha virt. eigenvalues --    0.86981   0.87336   0.87585   0.87834   0.88091
 Alpha virt. eigenvalues --    0.88435   0.89182   0.89271   0.90111   0.90256
 Alpha virt. eigenvalues --    0.90399   0.91414   0.91567   0.91687   0.92314
 Alpha virt. eigenvalues --    0.93825   0.94113   0.94329   0.94615   0.95170
 Alpha virt. eigenvalues --    0.95551   0.95787   0.96400   0.96945   0.97907
 Alpha virt. eigenvalues --    0.98167   0.98770   0.99048   0.99927   1.01484
 Alpha virt. eigenvalues --    1.01650   1.02261   1.03320   1.04782   1.04870
 Alpha virt. eigenvalues --    1.06574   1.07487   1.08879   1.09256   1.09525
 Alpha virt. eigenvalues --    1.10997   1.11359   1.13136   1.13660   1.14650
 Alpha virt. eigenvalues --    1.14827   1.15070   1.15869   1.16047   1.16211
 Alpha virt. eigenvalues --    1.16940   1.17831   1.18098   1.20810   1.21678
 Alpha virt. eigenvalues --    1.22020   1.22399   1.22964   1.24406   1.24561
 Alpha virt. eigenvalues --    1.24944   1.25175   1.25642   1.26220   1.26292
 Alpha virt. eigenvalues --    1.27537   1.27952   1.28437   1.28487   1.29548
 Alpha virt. eigenvalues --    1.29715   1.30257   1.30695   1.30741   1.30906
 Alpha virt. eigenvalues --    1.31492   1.32315   1.33091   1.33686   1.33903
 Alpha virt. eigenvalues --    1.34206   1.34448   1.34786   1.35320   1.35557
 Alpha virt. eigenvalues --    1.35871   1.35894   1.36200   1.37547   1.37660
 Alpha virt. eigenvalues --    1.38226   1.38353   1.38528   1.40222   1.40707
[...]
 Alpha  occ. eigenvalues --   -0.85280  -0.85010  -0.81928  -0.76800  -0.75891
 Alpha  occ. eigenvalues --   -0.75417  -0.75397  -0.74764  -0.74596  -0.74404
 Alpha  occ. eigenvalues --   -0.72311  -0.72001  -0.70290  -0.69013  -0.68214
 Alpha  occ. eigenvalues --   -0.65748  -0.65267  -0.65172  -0.64939  -0.64543
 Alpha  occ. eigenvalues --   -0.64526  -0.62674  -0.62128  -0.61075  -0.60186
 Alpha  occ. eigenvalues --   -0.59149  -0.58426  -0.57661  -0.57533  -0.57259
 Alpha  occ. eigenvalues --   -0.56921  -0.56636  -0.56502  -0.56105  -0.55969
 Alpha  occ. eigenvalues --   -0.55723  -0.55292  -0.54925  -0.54843  -0.54457
 Alpha  occ. eigenvalues --   -0.54374  -0.54049  -0.53366  -0.52994  -0.52542
 Alpha  occ. eigenvalues --   -0.52476  -0.52469  -0.51995  -0.51303  -0.51260
 Alpha  occ. eigenvalues --   -0.51137  -0.51127  -0.50557  -0.49465  -0.49101
 Alpha  occ. eigenvalues --   -0.48549  -0.47988  -0.47408  -0.47317  -0.46045
 Alpha  occ. eigenvalues --   -0.45766  -0.45145  -0.44923  -0.43754  -0.43718
 Alpha  occ. eigenvalues --   -0.43387  -0.42443  -0.41858  -0.41243  -0.40728
 Alpha  occ. eigenvalues --   -0.40366  -0.39660  -0.37837  -0.36581  -0.35653
 Alpha  occ. eigenvalues --   -0.35161  -0.33665  -0.33584  -0.33351  -0.33261
 Alpha  occ. eigenvalues --   -0.32223  -0.29677  -0.29550  -0.29262  -0.28006
 Alpha virt. eigenvalues --   -0.03076  -0.00634  -0.00228   0.00664   0.00880
 Alpha virt. eigenvalues --    0.01821   0.01971   0.02429   0.03948   0.04352
 Alpha virt. eigenvalues --    0.04401   0.06210   0.06752   0.06932   0.08988
 Alpha virt. eigenvalues --    0.09085   0.09320   0.09652   0.10274   0.10449
 Alpha virt. eigenvalues --    0.11514   0.12856   0.13149   0.13652   0.14140
 Alpha virt. eigenvalues --    0.14328   0.14515   0.15208   0.15299   0.15869
 Alpha virt. eigenvalues --    0.15969   0.16677   0.17421   0.17928   0.18748
 Alpha virt. eigenvalues --    0.18765   0.19434   0.19561   0.19965   0.20426
 Alpha virt. eigenvalues --    0.20691   0.21554   0.21947   0.22204   0.22549
 Alpha virt. eigenvalues --    0.22633   0.23076   0.23347   0.23566   0.24793
 Alpha virt. eigenvalues --    0.25805   0.26054   0.26283   0.27058   0.27632
 Alpha virt. eigenvalues --    0.28225   0.29139   0.29834   0.29958   0.30303
 Alpha virt. eigenvalues --    0.30590   0.31065   0.31320   0.31845   0.32137
 Alpha virt. eigenvalues --    0.32258   0.32386   0.32951   0.33572   0.33858
 Alpha virt. eigenvalues --    0.34152   0.34551   0.34959   0.35259   0.35505
 Alpha virt. eigenvalues --    0.35739   0.35878   0.36107   0.36534   0.36617
 Alpha virt. eigenvalues --    0.37666   0.37773   0.38515   0.38708   0.39172
 Alpha virt. eigenvalues --    0.39992   0.40344   0.41293   0.41499   0.42061
 Alpha virt. eigenvalues --    0.42084   0.42416   0.42828   0.44052   0.44123
 Alpha virt. eigenvalues --    0.44658   0.45433   0.45902   0.46660   0.47142
 Alpha virt. eigenvalues --    0.47613   0.47850   0.48131   0.48197   0.48660
 Alpha virt. eigenvalues --    0.49956   0.50342   0.50642   0.50976   0.51236
 Alpha virt. eigenvalues --    0.51386   0.51828   0.52337   0.52571   0.52720
 Alpha virt. eigenvalues --    0.52928   0.53256   0.53612   0.54216   0.54537
 Alpha virt. eigenvalues --    0.54714   0.54937   0.55107   0.55694   0.56045
 Alpha virt. eigenvalues --    0.56168   0.56612   0.57289   0.57442   0.57610
 Alpha virt. eigenvalues --    0.58116   0.58837   0.59165   0.60149   0.60188
 Alpha virt. eigenvalues --    0.60481   0.60536   0.61089   0.61535   0.61560
 Alpha virt. eigenvalues --    0.61654   0.63251   0.63679   0.64164   0.64796
 Alpha virt. eigenvalues --    0.64870   0.65511   0.65575   0.66388   0.66849
 Alpha virt. eigenvalues --    0.67113   0.67509   0.67781   0.67969   0.68593
 Alpha virt. eigenvalues --    0.68664   0.69960   0.70447   0.70463   0.70836
 Alpha virt. eigenvalues --    0.71289   0.71713   0.71841   0.71962   0.72437
 Alpha virt. eigenvalues --    0.72724   0.72906   0.73016   0.73390   0.73444
 Alpha virt. eigenvalues --    0.73851   0.74055   0.74405   0.74728   0.74774
 Alpha virt. eigenvalues --    0.75329   0.75491   0.75675   0.75862   0.76424
 Alpha virt. eigenvalues --    0.76802   0.77011   0.77094   0.77673   0.78345
 Alpha virt. eigenvalues --    0.78425   0.78793   0.79081   0.79456   0.79631
 Alpha virt. eigenvalues --    0.80316   0.80482   0.80641   0.81144   0.81562
 Alpha virt. eigenvalues --    0.81683   0.81746   0.82535   0.82825   0.83703
 Alpha virt. eigenvalues --    0.83883   0.83943   0.84177   0.84539   0.84945
 Alpha virt. eigenvalues --    0.85264   0.85468   0.85590   0.86366   0.86934
 Alpha virt. eigenvalues --    0.86982   0.87335   0.87585   0.87833   0.88093
 Alpha virt. eigenvalues --    0.88431   0.89181   0.89269   0.90109   0.90252
 Alpha virt. eigenvalues --    0.90398   0.91416   0.91566   0.91687   0.92314
 Alpha virt. eigenvalues --    0.93825   0.94112   0.94328   0.94615   0.95169
 Alpha virt. eigenvalues --    0.95550   0.95790   0.96399   0.96945   0.97916
 Alpha virt. eigenvalues --    0.98167   0.98770   0.99049   0.99927   1.01483
 Alpha virt. eigenvalues --    1.01650   1.02257   1.03321   1.04781   1.04869
 Alpha virt. eigenvalues --    1.06582   1.07486   1.08879   1.09255   1.09529
 Alpha virt. eigenvalues --    1.10996   1.11359   1.13138   1.13664   1.14645
 Alpha virt. eigenvalues --    1.14820   1.15070   1.15865   1.16046   1.16211
 Alpha virt. eigenvalues --    1.16941   1.17829   1.18095   1.20811   1.21676
 Alpha virt. eigenvalues --    1.22016   1.22399   1.22955   1.24405   1.24560
 Alpha virt. eigenvalues --    1.24939   1.25171   1.25640   1.26219   1.26292
 Alpha virt. eigenvalues --    1.27536   1.27951   1.28435   1.28485   1.29548
 Alpha virt. eigenvalues --    1.29717   1.30257   1.30695   1.30740   1.30904
 Alpha virt. eigenvalues --    1.31491   1.32314   1.33089   1.33686   1.33903
 Alpha virt. eigenvalues --    1.34207   1.34447   1.34788   1.35319   1.35556
 Alpha virt. eigenvalues --    1.35870   1.35893   1.36200   1.37546   1.37659
 Alpha virt. eigenvalues --    1.38221   1.38351   1.38527   1.40216   1.40706
 Alpha virt. eigenvalues --    1.41965   1.42185   1.43183   1.43369   1.44535
 Alpha virt. eigenvalues --    1.45455   1.46745   1.48076   1.48174   1.49401
 Alpha virt. eigenvalues --    1.50470   1.54888   1.55600   1.55678   1.58902
 Alpha virt. eigenvalues --    1.59142   1.59885   1.62368   1.63630   1.64305
 Alpha virt. eigenvalues --    1.64906   1.65583   1.66559   1.67562   1.67776
 Alpha virt. eigenvalues --    1.68765   1.69730   1.70938   1.71703   1.72021
 Alpha virt. eigenvalues --    1.72836   1.73013   1.73258   1.73683   1.73804
 Alpha virt. eigenvalues --    1.74430   1.74742   1.75048   1.75480   1.76000
 Alpha virt. eigenvalues --    1.77223   1.77265   1.78073   1.78469   1.78658
 Alpha virt. eigenvalues --    1.78733   1.79400   1.79548   1.79943   1.80020
 Alpha virt. eigenvalues --    1.80389   1.80906   1.81460   1.81627   1.81805
 Alpha virt. eigenvalues --    1.81932   1.82091   1.82234   1.82642   1.82946
 Alpha virt. eigenvalues --    1.83415   1.84104   1.84305   1.84700   1.84876
 Alpha virt. eigenvalues --    1.85665   1.86098   1.86401   1.87096   1.87405
 Alpha virt. eigenvalues --    1.87648   1.87870   1.88291   1.89698   1.89768
 Alpha virt. eigenvalues --    1.90380   1.90389   1.91078   1.91254   1.91852
 Alpha virt. eigenvalues --    1.93361   1.94164   1.94319   1.95547   1.96081
 Alpha virt. eigenvalues --    1.96774   1.97086   1.97574   1.98314   1.99281
 Alpha virt. eigenvalues --    1.99392   2.00592   2.01152   2.01431   2.02198
 Alpha virt. eigenvalues --    2.02567   2.02833   2.03215   2.03866   2.04510
 Alpha virt. eigenvalues --    2.04820   2.04995   2.05422   2.05737   2.06134
 Alpha virt. eigenvalues --    2.06930   2.07932   2.09209   2.10063   2.10350
 Alpha virt. eigenvalues --    2.10928   2.11067   2.11847   2.12282   2.13923
 Alpha virt. eigenvalues --    2.14629   2.15516   2.15827   2.16614   2.16709
 Alpha virt. eigenvalues --    2.16845   2.17878   2.18158   2.18592   2.19587
 Alpha virt. eigenvalues --    2.20333   2.20567   2.20887   2.21318   2.21563
 Alpha virt. eigenvalues --    2.23280   2.23575   2.24383   2.24516   2.25804
 Alpha virt. eigenvalues --    2.26114   2.29375   2.29966   2.30736   2.31367
 Alpha virt. eigenvalues --    2.31464   2.31666   2.32814   2.33451   2.34417
 Alpha virt. eigenvalues --    2.34998   2.35841   2.36061   2.36679   2.37392
 Alpha virt. eigenvalues --    2.37640   2.37772   2.38133   2.38454   2.38836
 Alpha virt. eigenvalues --    2.39565   2.39698   2.41342   2.41779   2.42683
 Alpha virt. eigenvalues --    2.44070   2.45206   2.45227   2.46164   2.46723
 Alpha virt. eigenvalues --    2.47509   2.48029   2.49901   2.49976   2.50721
 Alpha virt. eigenvalues --    2.53627   2.54880   2.56235   2.57332   2.59230
 Alpha virt. eigenvalues --    2.60220   2.60990   2.61535   2.63768   2.64676
 Alpha virt. eigenvalues --    2.65769   2.65964   2.66727   2.67003   2.67568
 Alpha virt. eigenvalues --    2.67639   2.68239   2.69473   2.69817   2.69872
 Alpha virt. eigenvalues --    2.70031   2.70299   2.70403   2.70879   2.71072
 Alpha virt. eigenvalues --    2.72106   2.72444   2.72721   2.74322   2.74769
 Alpha virt. eigenvalues --    2.75737   2.76999   2.79230   2.79453   2.80057
 Alpha virt. eigenvalues --    2.80123   2.80337   2.80466   2.81824   2.82261
 Alpha virt. eigenvalues --    2.84525   2.85246   2.85776   2.86408   2.87057
 Alpha virt. eigenvalues --    2.87178   2.89626   2.91415   2.91872   2.94574
 Alpha virt. eigenvalues --    2.95897   2.97863   2.98468   2.99079   3.01340
 Alpha virt. eigenvalues --    3.02742   3.05011   3.05838   3.06157   3.07095
 Alpha virt. eigenvalues --    3.08634   3.09702   3.10250   3.11773   3.12512
 Alpha virt. eigenvalues --    3.15831   3.16231   3.19168   3.19720   3.20313
 Alpha virt. eigenvalues --    3.20731   3.20960   3.21892   3.22208   3.24114
 Alpha virt. eigenvalues --    3.24719   3.29723   3.29910   3.32638   3.32882
 Alpha virt. eigenvalues --    3.38113   3.39038   3.41615   3.45650   3.45944
 Alpha virt. eigenvalues --    3.47186   3.50718   3.52347   3.55481   3.58470
 Alpha virt. eigenvalues --    3.60563   3.62386   3.63135   3.63220   3.63509
 Alpha virt. eigenvalues --    3.63817   3.65781   3.66467   3.71965   3.72713
 Alpha virt. eigenvalues --    3.75730   3.75934   3.76574   3.78845   3.79447
 Alpha virt. eigenvalues --    3.82125   3.85095   3.92412   3.95052   4.02486
 Alpha virt. eigenvalues --    4.08473
 Electronic spatial extent (au):  <R**2>=          25433.8347
 Charge=             -0.0000 electrons
 Dipole moment (field-independent basis, Debye):
    X=             19.7595    Y=             14.4309    Z=              0.2461  Tot=             24.4694
 Quadrupole moment (field-independent basis, Debye-Ang):
   XX=           -308.1829   YY=           -250.3246   ZZ=           -219.8877
   XY=            -55.8632   XZ=             -1.6742   YZ=             -1.4360
 Traceless Quadrupole moment (field-independent basis, Debye-Ang):
   XX=            -48.7178   YY=              9.1405   ZZ=             39.5773
   XY=            -55.8632   XZ=             -1.6742   YZ=             -1.4360
 Octapole moment (field-independent basis, Debye-Ang**2):
  XXX=            512.3882  YYY=            116.3078  ZZZ=              1.9760  XYY=           -130.7719
  XXY=            290.6880  XXZ=             12.2606  XZZ=             49.7635  YZZ=             10.7689
  YYZ=             -2.9525  XYZ=            -10.4978
 Hexadecapole moment (field-independent basis, Debye-Ang**3):
 XXXX=         -19177.2227 YYYY=          -7167.3569 ZZZZ=          -5533.7505 XXXY=          -1221.7073
 XXXZ=            -63.8943 YYYX=           -623.1044 YYYZ=             13.5258 ZZZX=             11.9190
 ZZZY=            -32.1669 XXYY=          -4544.7396 XXZZ=          -3815.2152 YYZZ=          -2544.3480
 XXYZ=             17.9175 YYXZ=            -30.3699 ZZXY=            133.5387
 N-N= 5.860074052825D+03 E-N=-2.454754460901D+04  KE= 5.399266805208D+03
 D1PCM: PCM CHGder 1st derivatives, ID1Alg=3 FixD1E=F DoIter=F DoCFld=F I1PDM=0.
 Calling FoFJK, ICntrl=      2127 FMM=T ISym2X=0 I1Cent= 0 IOpClX= 0 NMat=1 NMatS=1 NMatT=0.
 -------------------------------------------------------------------
 Center     Atomic                   Forces (Hartrees/Bohr)
 Number     Number              X              Y              Z
 -------------------------------------------------------------------
      1       25           0.000029562   -0.000065884    0.000091255
      2        6           0.000008326   -0.000052549   -0.000040188
      3        8           0.000005639    0.000024520    0.000020380
      4        6           0.000004538   -0.000101697   -0.000000073
      5        8           0.000016967    0.000005506   -0.000015063
      6        6           0.001000079   -0.001083410   -0.000071222
      7        7          -0.000130316    0.000018669   -0.000080667
      8        6          -0.000009228   -0.000051878    0.000035779
      9        6           0.000002287    0.000004650    0.000017159
     10        6           0.000039276   -0.000003607   -0.000015568
     11        1          -0.000015446    0.000020443   -0.000017967
     12        1           0.000000593    0.000002438   -0.000000567
     13        7           0.000208099    0.000075945   -0.000057188
     14        6          -0.000094264    0.000023501    0.000102281
     15        6          -0.000048436   -0.000009390   -0.000038538
     16        6          -0.000035734    0.000003333   -0.000015655
     17        6          -0.000006341   -0.000016415    0.000001489
     18        6          -0.000183030    0.000091151    0.000097593
     19        1           0.000004440   -0.000014475   -0.000004690
     20        1           0.000230855   -0.000085153   -0.000099876
     21        7          -0.000053241    0.000027488   -0.000002988
     22        6          -0.000000269   -0.000030901   -0.000011700
     23        6           0.000002324    0.000011175   -0.000004741
     24        1          -0.000045374   -0.000015318    0.000039986
     25        6          -0.000005220   -0.000013540   -0.000008267
     26        1          -0.000005611   -0.000007402   -0.000001356
     27        6           0.000029150    0.000015995    0.000004365
     28        1           0.000007941   -0.000003062   -0.000008959
     29        1          -0.000005983   -0.000000823    0.000001655
     30        8          -0.001081632    0.001104334    0.000051612
     31        6           0.000047326    0.000002319    0.000119468
     32        6           0.000018313    0.000023196   -0.000046579
     33        6           0.000011198    0.000024067    0.000022610
     34        6           0.000026569    0.000013109   -0.000030481
     35        6          -0.000009375    0.000006797   -0.000004718
     36        6           0.000000143    0.000004874    0.000008848
     37        6           0.000008992    0.000005500   -0.000007644
     38        6          -0.000018092    0.000001256    0.000025007
     39        6          -0.000023206    0.000021002   -0.000037113
     40        1          -0.000000207    0.000002720    0.000002309
     41        1           0.000004189    0.000004856    0.000003703
     42        1           0.000003418    0.000005489   -0.000002179
     43        6           0.000003957   -0.000006107    0.000029883
     44        6           0.000008356    0.000004572   -0.000000330
     45        6           0.000002034    0.000003773   -0.000004699
     46        6          -0.000005019    0.000005103    0.000000242
     47        6           0.000001067    0.000002431    0.000009834
     48        6           0.000006715    0.000008962   -0.000030559
     49        1          -0.000003654    0.000005552   -0.000000009
     50        1           0.000000551    0.000006513    0.000000331
     51        1          -0.000004538    0.000003506   -0.000002601
     52        6          -0.000004210   -0.000010188   -0.000015812
     53        1           0.000001224    0.000002688   -0.000003329
     54        6           0.000002291   -0.000023851   -0.000002801
     55        1           0.000001781   -0.000000127   -0.000005845
     56        1          -0.000003479    0.000001184    0.000002768
     57        6          -0.000004136   -0.000006255    0.000003665
     58        6           0.000001047    0.000011144    0.000000567
     59        1          -0.000003361   -0.000008631    0.000001625
     60        1          -0.000005108   -0.000007532   -0.000001921
     61       35           0.000009562    0.000023963    0.000010291
     62        1           0.000050879    0.000002682   -0.000022674
     63        1           0.000004821   -0.000008210    0.000009861
 -------------------------------------------------------------------
 Cartesian Forces:  Max     0.001104334 RMS     0.000160636
 NDeriv=    189 NFrqRd=  0 NDerD0=      0 MskFDP=       0 MskDFD=       0 MskDF0=       0
 Re-enter D2Numr:  atom  30 IXYZ=2 step-down number 1
 Basis read from rwf:  (5D, 7F)
   751 basis functions,  1339 primitive gaussians,   802 cartesian basis functions
   165 alpha electrons      165 beta electrons
       nuclear repulsion energy      5860.1877579005 Hartrees.
 NAtoms=   63 NActive=   63 NUniq=   63 SFac= 1.00D+00 NAtFMM=   60 NAOKFM=T Big=T
 Integral buffers will be    131072 words long.
 Raffenetti 2 integral format.
 Two-electron integral symmetry is turned off.
 Nuclear repulsion after empirical dispersion term =     5860.1246889186 Hartrees.
 ------------------------------------------------------------------------------
 Polarizable Continuum Model (PCM)
 =================================
 Model                : PCM.
 Atomic radii         : UFF (Universal Force Field).
 Polarization charges : Total charges.
 Charge compensation  : None.
 Solution method      : On-the-fly selection.
 Cavity type          : Scaled VdW (van der Waals Surface) (Alpha=1.100).
 Cavity algorithm     : GePol (No added spheres)
                        Default sphere list used, NSphG=   63.
                        Lebedev-Laikov grids with approx.  5.0 points / Ang**2.
                        Smoothing algorithm: York/Karplus (Gamma=1.0000).
                        Polarization charges: spherical gaussians, with
                                              point-specific exponents (IZeta= 3).
                        Self-potential: point-specific (ISelfS= 7).
                        Self-field    : sphere-specific E.n sum rule (ISelfD= 2).
 1st derivatives      : Analytical E(r).r(x)/FMM algorithm (CHGder, D1EAlg=3).
                        Cavity 1st derivative terms included.
 Solvent              : TetraHydroFuran, Eps=   7.425700 Eps(inf)=   1.974025
 ------------------------------------------------------------------------------
 One-electron integrals computed using PRISM.
 NBasis=   751 RedAO= T EigKep=  2.24D-04  NBF=   751
 NBsUse=   751 1.00D-06 EigRej= -1.00D+00 NBFU=   751
 Initial guess from the checkpoint file:  "checkpoint.chk"
 B after Tr=     0.000000   -0.000000    0.000046
         Rot=    1.000000    0.000006    0.000001    0.000000 Ang=   0.00 deg.
 Requested convergence on RMS density matrix=1.00D-08 within 128 cycles.
 Requested convergence on MAX density matrix=1.00D-06.
 Requested convergence on             energy=1.00D-06.
 No special actions if energy rises.
 Inv3:  Mode=1 IEnd=    73864332.
 Iteration    1 A*A^-1 deviation from unit magnitude is 4.55D-15 for   1886.
 Iteration    1 A*A^-1 deviation from orthogonality  is 2.13D-15 for   3318   3218.
 Iteration    1 A^-1*A deviation from unit magnitude is 4.00D-15 for   1886.
 Iteration    1 A^-1*A deviation from orthogonality  is 3.33D-15 for   2778   1883.
