 Entering Gaussian System, Link 0=g16
 Initial command:
 /home1/apps/gaussian/16rA.03/g16/l1.exe "/tmp/Gau-51390.inp" -scrdir="/tmp/"
 Entering Link 1 = /home1/apps/gaussian/16rA.03/g16/l1.exe PID=     51392.
  
 Copyright (c) 1988,1990,1992,1993,1995,1998,2003,2009,2016,
            Gaussian, Inc.  All Rights Reserved.
  
 This is part of the Gaussian(R) 16 program.  It is based on
 the Gaussian(R) 09 system (copyright 2009, Gaussian, Inc.),
 the Gaussian(R) 03 system (copyright 2003, Gaussian, Inc.),
 the Gaussian(R) 98 system (copyright 1998, Gaussian, Inc.),
 the Gaussian(R) 94 system (copyright 1995, Gaussian, Inc.),
 the Gaussian 92(TM) system (copyright 1992, Gaussian, Inc.),
 the Gaussian 90(TM) system (copyright 1990, Gaussian, Inc.),
 the Gaussian 88(TM) system (copyright 1988, Gaussian, Inc.),
 the Gaussian 86(TM) system (copyright 1986, Carnegie Mellon
 University), and the Gaussian 82(TM) system (copyright 1983,
 Carnegie Mellon University). Gaussian is a federally registered
 trademark of Gaussian, Inc.
  
 This software contains proprietary and confidential information,
 including trade secrets, belonging to Gaussian, Inc.
  
 This software is provided under written license and may be
 used, copied, transmitted, or stored only in accord with that
 written license.
  
 The following legend is applicable only to US Government
 contracts under FAR:
  
                    RESTRICTED RIGHTS LEGEND
  
 Use, reproduction and disclosure by the US Government is
 subject to restrictions as set forth in subparagraphs (a)
 and (c) of the Commercial Computer Software - Restricted
 Rights clause in FAR 52.227-19.
  
 Gaussian, Inc.
 340 Quinnipiac St., Bldg. 40, Wallingford CT 06492
  
  
 ---------------------------------------------------------------
 Warning -- This program may not be used in any manner that
 competes with the business of Gaussian, Inc. or will provide
 assistance to any competitor of Gaussian, Inc.  The licensee
 of this program is prohibited from giving any competitor of
 Gaussian, Inc. access to this program.  By using this program,
 the user acknowledges that Gaussian, Inc. is engaged in the
 business of creating and licensing software in the field of
 computational chemistry and represents and warrants to the
 licensee that it is not a competitor of Gaussian, Inc. and that
 it will not use this program in any manner prohibited above.
 ---------------------------------------------------------------
  

 Cite this work as:
 Gaussian 16, Revision A.03,
 M. J. Frisch, G. W. Trucks, H. B. Schlegel, G. E. Scuseria, 
 M. A. Robb, J. R. Cheeseman, G. Scalmani, V. Barone, 
 G. A. Petersson, H. Nakatsuji, X. Li, M. Caricato, A. V. Marenich, 
 J. Bloino, B. G. Janesko, R. Gomperts, B. Mennucci, H. P. Hratchian, 
 J. V. Ortiz, A. F. Izmaylov, J. L. Sonnenberg, D. Williams-Young, 
 F. Ding, F. Lipparini, F. Egidi, J. Goings, B. Peng, A. Petrone, 
 T. Henderson, D. Ranasinghe, V. G. Zakrzewski, J. Gao, N. Rega, 
 G. Zheng, W. Liang, M. Hada, M. Ehara, K. Toyota, R. Fukuda, 
 J. Hasegawa, M. Ishida, T. Nakajima, Y. Honda, O. Kitao, H. Nakai, 
 T. Vreven, K. Throssell, J. A. Montgomery, Jr., J. E. Peralta, 
 F. Ogliaro, M. J. Bearpark, J. J. Heyd, E. N. Brothers, K. N. Kudin, 
 V. N. Staroverov, T. A. Keith, R. Kobayashi, J. Normand, 
 K. Raghavachari, A. P. Rendell, J. C. Burant, S. S. Iyengar, 
 J. Tomasi, M. Cossi, J. M. Millam, M. Klene, C. Adamo, R. Cammi, 
 J. W. Ochterski, R. L. Martin, K. Morokuma, O. Farkas, 
 J. B. Foresman, and D. J. Fox, Gaussian, Inc., Wallingford CT, 2016.
 
 ******************************************
 Gaussian 16:  ES64L-G16RevA.03 25-Dec-2016
                14-Feb-2023 
 ******************************************
 %Chk=checkpoint.chk
 %NProcShared=12
 Will use up to   12 processors via shared memory.
 --------------------------------------------------------------
 # wB97XD Gen Opt=(QST3,Restart) SCRF=(Solvent=TetraHydroFuran)
 --------------------------------------------------------------
 1/5=1,18=20,26=3,27=203,35=1/3(2);
 2/9=110/2;
 99//99;
 2/9=110/2;
 3/5=7,6=1,11=2,25=1,30=1,70=2205,71=1,72=20,74=-58,82=7/1,2,3;
 4/5=5,16=3,69=1/1;
 5/5=2,38=5,53=20/2;
 7//1,2,3,16;
 1/5=1,18=20,26=3,27=203/3(-5);
 2/9=110/2;
 6/7=2,8=2,9=2,10=2,19=2,28=1/1;
 99/9=1/99;

 GradGradGradGradGradGradGradGradGradGradGradGradGradGradGradGradGradGrad
 Berny optimization.
 Restoring state from the checkpoint file "checkpoint.chk".
 ONIOM results not found on unit 2.
 Title:  Anthracene Transition State Reactant
 Route:  # wB97XD Gen Opt=(QST3) SCRF=(Solvent=TetraHydroFuran)
 FormGI is forming the generalized inverse of G from B-inverse, IUseBI=4.
 Internal  Forces:  Max     0.001300752 RMS     0.000161168
 Search for a saddle point.
 Step number  49 out of a maximum of  378
 All quantities printed in internal units (Hartrees-Bohrs-Radians)
 Update second derivatives using D2CorX and points   48   49
 ITU=  0  0  0  0  0  0  0  0  0  0  0  0  0  0  0  0  0  0  0  0
 ITU=  0  0  0  0  0  0  0  0  0  0  0  0  0  0  0  0  0  0  0  0
 ITU=  0  0  0  0  0  0  0  0  0
     Eigenvalues ---   -0.00218  -0.00000   0.00075   0.00329   0.00562
     Eigenvalues ---    0.00743   0.00840   0.00979   0.01022   0.01349
     Eigenvalues ---    0.01466   0.01502   0.01533   0.01569   0.01687
     Eigenvalues ---    0.01719   0.01738   0.01808   0.01832   0.01866
     Eigenvalues ---    0.01875   0.01888   0.01895   0.01914   0.01924
     Eigenvalues ---    0.01946   0.01977   0.01995   0.02006   0.02020
     Eigenvalues ---    0.02059   0.02077   0.02120   0.02121   0.02124
     Eigenvalues ---    0.02141   0.02155   0.02158   0.02162   0.02167
     Eigenvalues ---    0.02168   0.02173   0.02179   0.02241   0.02248
     Eigenvalues ---    0.02298   0.02302   0.02315   0.02360   0.02376
     Eigenvalues ---    0.02419   0.02443   0.02881   0.03493   0.03877
     Eigenvalues ---    0.04259   0.05100   0.05187   0.05328   0.05797
     Eigenvalues ---    0.06116   0.06576   0.07158   0.07231   0.07548
     Eigenvalues ---    0.07737   0.08052   0.08395   0.08796   0.09315
     Eigenvalues ---    0.09467   0.10536   0.11185   0.11828   0.12875
     Eigenvalues ---    0.13706   0.14531   0.15075   0.15205   0.15769
     Eigenvalues ---    0.15993   0.15996   0.15998   0.15998   0.15999
     Eigenvalues ---    0.15999   0.16000   0.16000   0.16000   0.16000
     Eigenvalues ---    0.16001   0.16002   0.16005   0.16007   0.16019
     Eigenvalues ---    0.16035   0.16826   0.17728   0.18334   0.19312
     Eigenvalues ---    0.20070   0.20774   0.21162   0.21234   0.21353
     Eigenvalues ---    0.21787   0.21904   0.22066   0.22097   0.22176
     Eigenvalues ---    0.22207   0.22569   0.22757   0.22981   0.23375
     Eigenvalues ---    0.23453   0.23567   0.23599   0.24079   0.24353
     Eigenvalues ---    0.24750   0.25299   0.28310   0.31461   0.32085
     Eigenvalues ---    0.33241   0.33310   0.33864   0.33908   0.34153
     Eigenvalues ---    0.34181   0.34423   0.34429   0.34430   0.34431
     Eigenvalues ---    0.34442   0.34459   0.34465   0.34493   0.34500
     Eigenvalues ---    0.34536   0.34542   0.34639   0.34651   0.34740
     Eigenvalues ---    0.34779   0.36408   0.36556   0.36906   0.37896
     Eigenvalues ---    0.39214   0.39289   0.40028   0.40357   0.40592
     Eigenvalues ---    0.40656   0.40896   0.41462   0.41828   0.42408
     Eigenvalues ---    0.43355   0.44307   0.44360   0.45068   0.45428
     Eigenvalues ---    0.45593   0.45701   0.46474   0.46512   0.46572
     Eigenvalues ---    0.47134   0.48954   0.49002   0.50724   0.50831
     Eigenvalues ---    0.53704   0.53774   0.55358   0.55476   1.22895
     Eigenvalues ---    1.32397   1.37097   1.374971000.000001000.00000
     Eigenvalues --- 1000.000001000.000001000.000001000.000001000.00000
     Eigenvalues --- 1000.000001000.000001000.000001000.000001000.00000
     Eigenvalues --- 1000.000001000.000001000.000001000.000001000.00000
     Eigenvalues --- 1000.000001000.000001000.000001000.000001000.00000
     Eigenvalues --- 1000.000001000.000001000.000001000.000001000.00000
     Eigenvalues --- 1000.000001000.000001000.000001000.000001000.00000
     Eigenvalues --- 1000.000001000.000001000.000001000.000001000.00000
     Eigenvalues --- 1000.000001000.000001000.000001000.000001000.00000
     Eigenvalues --- 1000.000001000.000001000.000001000.000001000.00000
     Eigenvalues --- 1000.000001000.000001000.000001000.000001000.00000
     Eigenvalues --- 1000.000001000.000001000.000001000.000001000.00000
     Eigenvalues --- 1000.000001000.000001000.000001000.000001000.00000
     Eigenvalues --- 1000.000001000.000001000.000001000.000001000.00000
     Eigenvalues --- 1000.000001000.000001000.000001000.000001000.00000
     Eigenvalues --- 1000.000001000.000001000.000001000.000001000.00000
     Eigenvalues --- 1000.000001000.000001000.000001000.000001000.00000
     Eigenvalues --- 1000.000001000.000001000.000001000.000001000.00000
     Eigenvalues --- 1000.000001000.000001000.000001000.000001000.00000
     Eigenvalues --- 1000.000001000.000001000.000001000.000001000.00000
     Eigenvalues --- 1000.000001000.000001000.000001000.000001000.00000
     Eigenvalues --- 1000.000001000.000001000.000001000.000001000.00000
     Eigenvalues --- 1000.000001000.000001000.000001000.000001000.00000
     Eigenvalues --- 1000.000001000.000001000.000001000.000001000.00000
     Eigenvalues --- 1000.000001000.000001000.000001000.000001000.00000
     Eigenvalues --- 1000.000001000.000001000.000001000.000001000.00000
     Eigenvalues --- 1000.000001000.000001000.000001000.000001000.00000
     Eigenvalues --- 1000.000001000.000001000.000001000.000001000.00000
     Eigenvalues --- 1000.000001000.000001000.000001000.000001000.00000
     Eigenvalues --- 1000.000001000.000001000.000001000.000001000.00000
     Eigenvalues --- 1000.000001000.000001000.000001000.000001000.00000
     Eigenvalues --- 1000.000001000.000001000.000001000.000001000.00000
     Eigenvalues --- 1000.000001000.000001000.000001000.000001000.00000
     Eigenvalues --- 1000.000001000.000001000.000001000.000001000.00000
     Eigenvalues --- 1000.000001000.000001000.000001000.000001000.00000
     Eigenvalues --- 1000.000001000.000001000.000001000.000001000.00000
     Eigenvalues --- 1000.000001000.000001000.000001000.000001000.00000
     Eigenvalues --- 1000.000001000.000001000.000001000.000001000.00000
     Eigenvalues --- 1000.000001000.000001000.000001000.000001000.00000
     Eigenvalues --- 1000.000001000.000001000.000001000.000001000.00000
     Eigenvalues --- 1000.000001000.000001000.000001000.000001000.00000
     Eigenvalues --- 1000.000001000.000001000.000001000.000001000.00000
     Eigenvalues --- 1000.000001000.000001000.000001000.000001000.00000
     Eigenvalues --- 1000.000001000.000001000.000001000.000001000.00000
     Eigenvalues --- 1000.000001000.000001000.000001000.000001000.00000
     Eigenvalues --- 1000.000001000.000001000.000001000.000001000.00000
     Eigenvalues --- 1000.000001000.000001000.000001000.000001000.00000
     Eigenvalues --- 1000.000001000.00000
 Eigenvectors required to have negative eigenvalues:
                          R32       R20       R33       D12       D14
   1                    0.65623   0.45348  -0.24698   0.16822   0.16597
                          D18       D16       D57       D80       D56
   1                    0.16354   0.14999   0.13676  -0.12783   0.12409
 QST in optimization variable space.
                        Tangent   TS vect  // Eig F  Eigenval
   1         R1         0.00009   0.00117   0.00029  -0.00218
   2         R2        -0.00029   0.00193   0.00011  -0.00000
   3         R3        -0.00038   0.00369  -0.00164   0.00075
   4         R4         0.01159   0.00304   0.00048   0.00329
   5         R5         0.03086  -0.01059   0.00031   0.00562
   6         R6        -0.00272  -0.02067   0.00007   0.00743
   7         R7        -0.15203  -0.07633  -0.00026   0.00840
   8         R8         0.00000  -0.00060   0.00010   0.00979
   9         R9         0.00018  -0.00002   0.00027   0.01022
  10         R10       -0.00011  -0.00017  -0.00022   0.01349
  11         R11       -0.00447   0.00014  -0.00001   0.01466
  12         R12        0.00243  -0.00018  -0.00004   0.01502
  13         R13        0.00198  -0.00016   0.00008   0.01533
  14         R14       -0.00154  -0.00062   0.00001   0.01569
  15         R15        0.00428  -0.00044   0.00005   0.01687
  16         R16       -0.00002  -0.00043   0.00010   0.01719
  17         R17       -0.00238  -0.00035   0.00010   0.01738
  18         R18        0.00205  -0.00056   0.00005   0.01808
  19         R19        0.00001  -0.00049   0.00002   0.01832
  20         R20       -0.17829   0.45348   0.00003   0.01866
  21         R21        0.00032  -0.00044  -0.00008   0.01875
  22         R22       -0.21410  -0.00426   0.00004   0.01888
  23         R23        0.00060  -0.00251  -0.00012   0.01895
  24         R24        0.00007  -0.00066   0.00008   0.01914
  25         R25        0.00218   0.00054  -0.00009   0.01924
  26         R26       -0.00056  -0.00089  -0.00002   0.01946
  27         R27       -0.00050   0.00073  -0.00007   0.01977
  28         R28       -0.00002  -0.00001   0.00000   0.01995
  29         R29       -0.00078   0.00009  -0.00002   0.02006
  30         R30        0.00048   0.00433  -0.00006   0.02020
  31         R31        0.00047   0.00057   0.00001   0.02059
  32         R32       -0.39726   0.65623  -0.00016   0.02077
  33         R33        0.54330  -0.24698  -0.00022   0.02120
  34         R34       -0.00092  -0.00053   0.00004   0.02121
  35         R35       -0.01259  -0.00015   0.00024   0.02124
  36         R36        0.00111   0.00045  -0.00004   0.02141
  37         R37       -0.00288   0.00006   0.00009   0.02155
  38         R38        0.00064   0.00061  -0.00001   0.02158
  39         R39       -0.00158   0.00123   0.00001   0.02162
  40         R40       -0.00002  -0.00006   0.00008   0.02167
  41         R41        0.00031  -0.00062  -0.00001   0.02168
  42         R42        0.00028   0.00100   0.00002   0.02173
  43         R43       -0.00993  -0.00038   0.00000   0.02179
  44         R44        0.00574   0.00032   0.00030   0.02241
  45         R45       -0.04536   0.00210  -0.00009   0.02248
  46         R46        0.03715   0.00031  -0.00002   0.02298
  47         R47       -0.00897   0.00031  -0.00006   0.02302
  48         R48       -0.01790   0.00090   0.00000   0.02315
  49         R49        0.02840   0.00119   0.00003   0.02360
  50         R50       -0.03944   0.00089  -0.00000   0.02376
  51         R51       -0.00233  -0.00011   0.00004   0.02419
  52         R52        0.00073   0.00016   0.00000   0.02443
  53         R53       -0.00537  -0.00040   0.00013   0.02881
  54         R54        0.00043  -0.00005   0.00008   0.03493
  55         R55       -0.00003   0.00027   0.00032   0.03877
  56         R56        0.00025   0.00040   0.00024   0.04259
  57         R57       -0.00001  -0.00008   0.00040   0.05100
  58         R58       -0.00049   0.00015   0.00007   0.05187
  59         R59       -0.00000  -0.00022   0.00041   0.05328
  60         R60       -0.01683   0.00039   0.00000   0.05797
  61         R61       -0.01824   0.00042  -0.00036   0.06116
  62         R62        0.00232   0.00018  -0.00039   0.06576
  63         R63       -0.00048   0.00006   0.00038   0.07158
  64         R64       -0.00421  -0.00018  -0.00066   0.07231
  65         R65       -0.00002  -0.00003   0.00018   0.07548
  66         R66       -0.00414  -0.00028  -0.00045   0.07737
  67         R67       -0.00000  -0.00001  -0.00090   0.08052
  68         R68        0.00056   0.00055   0.00007   0.08395
  69         R69       -0.00005   0.00002   0.00017   0.08796
  70         R70       -0.01073   0.00030  -0.00027   0.09315
  71         R71       -0.00537  -0.00109   0.00002   0.09467
  72         R72        0.00007   0.00027  -0.00013   0.10536
  73         R73        0.00002   0.00055  -0.00013   0.11185
  74         R74       -0.00005   0.00010   0.00024   0.11828
  75         R75       -0.00004  -0.00006  -0.00051   0.12875
  76         A1        -0.00569   0.01571   0.00029   0.13706
  77         A2         0.00213   0.00610   0.00064   0.14531
  78         A3        -0.01124   0.02007   0.00004   0.15075
  79         A4         0.00259   0.01374   0.00071   0.15205
  80         A5         0.01309  -0.01199  -0.00032   0.15769
  81         A6         0.00012  -0.02027  -0.00026   0.15993
  82         A7        -0.00149  -0.00319  -0.00004   0.15996
  83         A8         0.00345  -0.00304   0.00012   0.15998
  84         A9        -0.00555   0.00436  -0.00006   0.15998
  85         A10        0.02994  -0.00011  -0.00007   0.15999
  86         A11       -0.00557  -0.00457  -0.00003   0.15999
  87         A12       -0.01170   0.00257  -0.00000   0.16000
  88         A13        0.00152  -0.02198   0.00001   0.16000
  89         A14        0.00058   0.00745   0.00000   0.16000
  90         A15        0.01522  -0.00589   0.00003   0.16000
  91         A16        0.03354  -0.00191   0.00006   0.16001
  92         A17        0.00830   0.00056   0.00015   0.16002
  93         A18        0.00064   0.00291  -0.00002   0.16005
  94         A19        0.01046  -0.05309   0.00011   0.16007
  95         A20       -0.01394  -0.00343  -0.00001   0.16019
  96         A21        0.01048  -0.00030  -0.00010   0.16035
  97         A22       -0.00824   0.00783  -0.00027   0.16826
  98         A23       -0.04069   0.00287  -0.00011   0.17728
  99         A24       -0.01378   0.02116  -0.00030   0.18334
 100         A25        0.00379  -0.00249   0.00031   0.19312
 101         A26        0.00157  -0.04142  -0.00016   0.20070
 102         A27       -0.00508  -0.04319  -0.00035   0.20774
 103         A28       -0.00623  -0.01335   0.00023   0.21162
 104         A29        0.00158   0.02036   0.00011   0.21234
 105         A30        0.00325   0.02122   0.00008   0.21353
 106         A31       -0.00516  -0.00645   0.00033   0.21787
 107         A32        0.00397   0.00139   0.00001   0.21904
 108         A33        0.00995  -0.00118   0.00009   0.22066
 109         A34       -0.00508   0.00117   0.00018   0.22097
 110         A35       -0.00515  -0.00003  -0.00009   0.22176
 111         A36       -0.00259   0.00008   0.00007   0.22207
 112         A37        0.00174   0.00043   0.00008   0.22569
 113         A38        0.00085  -0.00028  -0.00022   0.22757
 114         A39        0.00190   0.00012  -0.00014   0.22981
 115         A40       -0.00390   0.00030  -0.00008   0.23375
 116         A41        0.00201  -0.00040  -0.00017   0.23453
 117         A42        0.00533   0.00070   0.00013   0.23567
 118         A43       -0.00396  -0.00063  -0.00021   0.23599
 119         A44       -0.00137  -0.00008  -0.00031   0.24079
 120         A45       -0.06287   0.02445  -0.00024   0.24353
 121         A46       -0.08028   0.01408  -0.00033   0.24750
 122         A47        0.00513   0.04687  -0.00005   0.25299
 123         A48       -0.08112   0.04750  -0.00005   0.28310
 124         A49        0.06058   0.01717  -0.00019   0.31461
 125         A50       -0.01293   0.03468  -0.00047   0.32085
 126         A51       -0.03302   0.03107  -0.00020   0.33241
 127         A52       -0.40275  -0.03075  -0.00027   0.33310
 128         A53       -0.00883  -0.00462  -0.00002   0.33864
 129         A54        0.01021   0.00203   0.00006   0.33908
 130         A55       -0.00124   0.00262   0.00014   0.34153
 131         A56        0.00179   0.00064   0.00007   0.34181
 132         A57       -0.00303  -0.00569   0.00003   0.34423
 133         A58        0.00125   0.00511   0.00000   0.34429
 134         A59        0.00025   0.00052  -0.00004   0.34430
 135         A60       -0.00058  -0.00161   0.00001   0.34431
 136         A61        0.00033   0.00109   0.00000   0.34442
 137         A62        0.00983   0.01247  -0.00000   0.34459
 138         A63       -0.00098  -0.00413  -0.00003   0.34465
 139         A64       -0.00888  -0.00848   0.00000   0.34493
 140         A65       -0.01952  -0.08414  -0.00001   0.34500
 141         A66        0.03715  -0.05186  -0.00000   0.34536
 142         A67       -0.07910   0.03919   0.00000   0.34542
 143         A68       -0.01072   0.00027  -0.00006   0.34639
 144         A69        0.01039  -0.00101   0.00005   0.34651
 145         A70       -0.00062   0.00203  -0.00000   0.34740
 146         A71        0.00384   0.00134  -0.00012   0.34779
 147         A72        0.00038   0.00045   0.00023   0.36408
 148         A73       -0.00421  -0.00173   0.00000   0.36556
 149         A74       -0.00597   0.00092   0.00003   0.36906
 150         A75        0.00284  -0.00137  -0.00022   0.37896
 151         A76        0.00314   0.00046   0.00024   0.39214
 152         A77        0.02105  -0.04967  -0.00007   0.39289
 153         A78        0.00093  -0.00052  -0.00011   0.40028
 154         A79       -0.00049  -0.00000  -0.00035   0.40357
 155         A80       -0.00047   0.00050  -0.00004   0.40592
 156         A81       -0.00005  -0.00228   0.00003   0.40656
 157         A82        0.00035  -0.00007  -0.00017   0.40896
 158         A83       -0.00033   0.00234  -0.00000   0.41462
 159         A84        0.01558  -0.00013  -0.00008   0.41828
 160         A85        0.01126   0.00020   0.00005   0.42408
 161         A86       -0.00771   0.00038   0.00057   0.43355
 162         A87        0.00603   0.00002   0.00030   0.44307
 163         A88       -0.00879  -0.00028  -0.00038   0.44360
 164         A89        0.02260  -0.00076   0.00009   0.45068
 165         A90       -0.00445   0.00138   0.00005   0.45428
 166         A91        0.01109  -0.00001  -0.00022   0.45593
 167         A92       -0.01830  -0.00061   0.00017   0.45701
 168         A93        0.01306  -0.00020   0.00010   0.46474
 169         A94        0.00118  -0.00062  -0.00014   0.46512
 170         A95        0.01596  -0.00007   0.00011   0.46572
 171         A96       -0.01702   0.00064  -0.00001   0.47134
 172         A97        0.00098   0.00110   0.00000   0.48954
 173         A98        0.00086  -0.00116  -0.00008   0.49002
 174         A99       -0.00180   0.00012   0.00002   0.50724
 175         A100      -0.00044  -0.00038  -0.00008   0.50831
 176         A101       0.00062   0.00086  -0.00025   0.53704
 177         A102      -0.00020  -0.00050   0.00019   0.53774
 178         A103      -0.00174   0.00027  -0.00001   0.55358
 179         A104       0.00083  -0.00022  -0.00028   0.55476
 180         A105       0.00091  -0.00005   0.00049   1.22895
 181         A106      -0.00266   0.00016   0.00001   1.32397
 182         A107       0.00144  -0.00020   0.00032   1.37097
 183         A108       0.00121   0.00000  -0.00005   1.37497
 184         A109       0.00734   0.00075  -0.000001000.00000
 185         A110      -0.01077  -0.00006  -0.000001000.00000
 186         A111       0.00339  -0.00067  -0.000001000.00000
 187         A112       0.00502  -0.00098  -0.000001000.00000
 188         A113      -0.00831   0.00040  -0.000001000.00000
 189         A114       0.00326   0.00058   0.000001000.00000
 190         A115      -0.01168  -0.00032  -0.000001000.00000
 191         A116       0.01996   0.00006  -0.000001000.00000
 192         A117      -0.00830   0.00026   0.000001000.00000
 193         A118      -0.00812   0.00040  -0.000001000.00000
 194         A119      -0.00188  -0.00050   0.000001000.00000
 195         A120       0.00996   0.00012  -0.000001000.00000
 196         A121      -0.00114  -0.00013  -0.000001000.00000
 197         A122       0.00061   0.00076   0.000001000.00000
 198         A123       0.00052  -0.00066   0.000001000.00000
 199         A124      -0.00451  -0.00006  -0.000001000.00000
 200         A125       0.00233   0.00014   0.000001000.00000
 201         A126       0.00216  -0.00009  -0.000001000.00000
 202         A127       0.00117   0.00071  -0.000001000.00000
 203         A128      -0.00101  -0.00109  -0.000001000.00000
 204         A129      -0.00019   0.00033  -0.000001000.00000
 205         A130       0.00279  -0.00084  -0.000001000.00000
 206         A131       0.00752   0.00176  -0.000001000.00000
 207         A132      -0.01025  -0.00085  -0.000001000.00000
 208         A133       0.01871   0.00208   0.000001000.00000
 209         A134       0.00405  -0.00177  -0.000001000.00000
 210         A135      -0.02267  -0.00020   0.000001000.00000
 211         A136       0.00234   0.00048  -0.000001000.00000
 212         A137      -0.00269  -0.00105  -0.000001000.00000
 213         A138       0.00032   0.00054  -0.000001000.00000
 214         A139      -0.00012   0.00031  -0.000001000.00000
 215         A140       0.00026  -0.00023  -0.000001000.00000
 216         A141      -0.00014  -0.00008  -0.000001000.00000
 217         A142       0.00114   0.00220  -0.000001000.00000
 218         A143      -0.00040  -0.00154  -0.000001000.00000
 219         A144      -0.00074  -0.00066   0.000001000.00000
 220         A145      -0.01364  -0.00038   0.000001000.00000
 221         D1         0.02987  -0.00295   0.000001000.00000
 222         D2         0.02619  -0.00353  -0.000001000.00000
 223         D3         0.02666   0.00028   0.000001000.00000
 224         D4         0.02299  -0.00029  -0.000001000.00000
 225         D5         0.06172  -0.00344   0.000001000.00000
 226         D6         0.05805  -0.00401  -0.000001000.00000
 227         D7         0.01785  -0.00079  -0.000001000.00000
 228         D8         0.01417  -0.00137  -0.000001000.00000
 229         D9         0.03238  -0.03458  -0.000001000.00000
 230         D10        0.02871  -0.03516   0.000001000.00000
 231         D11       -0.03147   0.12389   0.000001000.00000
 232         D12       -0.03655   0.16822   0.000001000.00000
 233         D13       -0.04225   0.12165  -0.000001000.00000
 234         D14       -0.04733   0.16597  -0.000001000.00000
 235         D15       -0.01811   0.10566   0.000001000.00000
 236         D16       -0.02319   0.14999  -0.000001000.00000
 237         D17       -0.05259   0.11922  -0.000001000.00000
 238         D18       -0.05767   0.16354  -0.000001000.00000
 239         D19       -0.01883  -0.02586   0.000001000.00000
 240         D20       -0.02847  -0.01291  -0.000001000.00000
 241         D21       -0.01710  -0.02057   0.000001000.00000
 242         D22       -0.02675  -0.00761  -0.000001000.00000
 243         D23       -0.01550  -0.01307   0.000001000.00000
 244         D24       -0.02515  -0.00011  -0.000001000.00000
 245         D25       -0.03458  -0.01624   0.000001000.00000
 246         D26       -0.04423  -0.00329   0.000001000.00000
 247         D27       -0.02615   0.01065   0.000001000.00000
 248         D28       -0.03580   0.02360  -0.000001000.00000
 249         D29       -0.00269   0.00102   0.000001000.00000
 250         D30       -0.01115  -0.00013  -0.000001000.00000
 251         D31        0.00095   0.00153  -0.000001000.00000
 252         D32       -0.00751   0.00037  -0.000001000.00000
 253         D33        0.00489   0.00358   0.000001000.00000
 254         D34        0.00164   0.00013  -0.000001000.00000
 255         D35        0.00234   0.00296   0.000001000.00000
 256         D36       -0.00092  -0.00049   0.000001000.00000
 257         D37        0.00173  -0.00454  -0.000001000.00000
 258         D38       -0.00082  -0.00738   0.000001000.00000
 259         D39        0.00161   0.00407  -0.000001000.00000
 260         D40       -0.00094   0.00123   0.000001000.00000
 261         D41       -0.06647   0.03534   0.000001000.00000
 262         D42       -0.06636   0.02666   0.000001000.00000
 263         D43       -0.00245  -0.00438  -0.000001000.00000
 264         D44        0.00091  -0.00083  -0.000001000.00000
 265         D45       -0.00263   0.00408   0.000001000.00000
 266         D46        0.00072   0.00763  -0.000001000.00000
 267         D47        0.00417   0.00285  -0.000001000.00000
 268         D48        0.00986   0.00019  -0.000001000.00000
 269         D49        0.00163   0.00001   0.000001000.00000
 270         D50        0.00731  -0.00265   0.000001000.00000
 271         D51       -0.00394  -0.00442   0.000001000.00000
 272         D52       -0.01011  -0.00173   0.000001000.00000
 273         D53        0.00476  -0.00324   0.000001000.00000
 274         D54       -0.00141  -0.00055  -0.000001000.00000
 275         D55        0.06970  -0.01998  -0.000001000.00000
 276         D56       -0.01982   0.12409   0.000001000.00000
 277         D57       -0.03633   0.13676   0.000001000.00000
 278         D58       -0.24628  -0.02662   0.000001000.00000
 279         D59        0.01525   0.00139   0.000001000.00000
 280         D60        0.01305  -0.01384   0.000001000.00000
 281         D61       -0.00295  -0.00280   0.000001000.00000
 282         D62       -0.00516  -0.01803   0.000001000.00000
 283         D63       -0.02074  -0.01326  -0.000001000.00000
 284         D64       -0.01766   0.00078  -0.000001000.00000
 285         D65       -0.00177  -0.00890  -0.000001000.00000
 286         D66        0.00131   0.00514  -0.000001000.00000
 287         D67        0.00040  -0.00120   0.000001000.00000
 288         D68        0.00258  -0.00185  -0.000001000.00000
 289         D69        0.00261   0.01416  -0.000001000.00000
 290         D70        0.00480   0.01352  -0.000001000.00000
 291         D71       -0.01803   0.05601   0.000001000.00000
 292         D72       -0.02027   0.04054   0.000001000.00000
 293         D73       -0.00062   0.00415   0.000001000.00000
 294         D74       -0.00124   0.00372  -0.000001000.00000
 295         D75        0.00158   0.00350   0.000001000.00000
 296         D76        0.00095   0.00307   0.000001000.00000
 297         D77       -0.03824   0.09081   0.000001000.00000
 298         D78        0.02005  -0.11360   0.000001000.00000
 299         D79       -0.04131   0.07659   0.000001000.00000
 300         D80        0.01697  -0.12783   0.000001000.00000
 301         D81        0.00070  -0.00284   0.000001000.00000
 302         D82       -0.00057  -0.00417   0.000001000.00000
 303         D83        0.00366   0.01105  -0.000001000.00000
 304         D84        0.00238   0.00973  -0.000001000.00000
 305         D85       -0.13147   0.08325  -0.000001000.00000
 306         D86       -0.01167   0.01713   0.000001000.00000
 307         D87       -0.00771   0.01902   0.000001000.00000
 308         D88       -0.00346   0.00520  -0.000001000.00000
 309         D89        0.00051   0.00708  -0.000001000.00000
 310         D90        0.00952  -0.01205  -0.000001000.00000
 311         D91        0.01670  -0.00533  -0.000001000.00000
 312         D92       -0.00071   0.00069   0.000001000.00000
 313         D93        0.00647   0.00742  -0.000001000.00000
 314         D94       -0.00079   0.00501  -0.000001000.00000
 315         D95       -0.00140   0.00296  -0.000001000.00000
 316         D96       -0.00118   0.00251   0.000001000.00000
 317         D97       -0.00179   0.00046   0.000001000.00000
 318         D98        0.09032  -0.02607  -0.000001000.00000
 319         D99        0.09078  -0.02353   0.000001000.00000
 320         D100       0.00431  -0.00678  -0.000001000.00000
 321         D101       0.00024  -0.00873  -0.000001000.00000
 322         D102       0.00380  -0.00926  -0.000001000.00000
 323         D103      -0.00027  -0.01122  -0.000001000.00000
 324         D104      -0.00815  -0.00376  -0.000001000.00000
 325         D105      -0.00280   0.00272   0.000001000.00000
 326         D106      -0.00755  -0.00172   0.000001000.00000
 327         D107      -0.00220   0.00476  -0.000001000.00000
 328         D108       0.00090   0.00107   0.000001000.00000
 329         D109       0.00592   0.00170  -0.000001000.00000
 330         D110      -0.01466  -0.00192   0.000001000.00000
 331         D111      -0.00964  -0.00129  -0.000001000.00000
 332         D112       0.03423   0.00210   0.000001000.00000
 333         D113       0.03925   0.00273   0.000001000.00000
 334         D114      -0.00591  -0.00112  -0.000001000.00000
 335         D115      -0.00305  -0.00182  -0.000001000.00000
 336         D116       0.01001   0.00188   0.000001000.00000
 337         D117       0.01287   0.00118   0.000001000.00000
 338         D118      -0.03917  -0.00214  -0.000001000.00000
 339         D119      -0.03631  -0.00284  -0.000001000.00000
 340         D120      -0.19497  -0.00831  -0.000001000.00000
 341         D121      -0.18189  -0.00546  -0.000001000.00000
 342         D122       0.00057  -0.00664   0.000001000.00000
 343         D123      -0.00330  -0.00496   0.000001000.00000
 344         D124      -0.03104  -0.00465  -0.000001000.00000
 345         D125      -0.03491  -0.00297  -0.000001000.00000
 346         D126       0.01623  -0.00141   0.000001000.00000
 347         D127       0.01236   0.00026  -0.000001000.00000
 348         D128       0.00319   0.00552   0.000001000.00000
 349         D129      -0.00022   0.00637   0.000001000.00000
 350         D130       0.03488   0.00351  -0.000001000.00000
 351         D131       0.03147   0.00436   0.000001000.00000
 352         D132      -0.01234   0.00027  -0.000001000.00000
 353         D133      -0.01575   0.00112  -0.000001000.00000
 354         D134      -0.00782   0.00464   0.000001000.00000
 355         D135      -0.01003   0.00129   0.000001000.00000
 356         D136      -0.00160   0.00184   0.000001000.00000
 357         D137      -0.00381  -0.00152  -0.000001000.00000
 358         D138      -0.00204  -0.00229  -0.000001000.00000
 359         D139      -0.00066  -0.00058   0.000001000.00000
 360         D140       0.00016   0.00098   0.000001000.00000
 361         D141       0.00154   0.00270   0.000001000.00000
 362         D142       0.00676   0.00039  -0.000001000.00000
 363         D143       0.00165  -0.00025  -0.000001000.00000
 364         D144       0.00454  -0.00294   0.000001000.00000
 365         D145      -0.00057  -0.00358   0.000001000.00000
 366         D146       0.00102   0.00169   0.000001000.00000
 367         D147       0.00163   0.00251  -0.000001000.00000
 368         D148      -0.00033   0.00000  -0.000001000.00000
 369         D149       0.00027   0.00083   0.000001000.00000
 370         D150      -0.00162  -0.00166   0.000001000.00000
 371         D151      -0.00121   0.00136   0.000001000.00000
 372         D152      -0.00224  -0.00250   0.000001000.00000
 373         D153      -0.00183   0.00053  -0.000001000.00000
 374         D154      -0.00280   0.00069   0.000001000.00000
 375         D155       0.00119  -0.00099   0.000001000.00000
 376         D156      -0.00320  -0.00228   0.000001000.00000
 377         D157       0.00079  -0.00396   0.000001000.00000
 378         D158      -0.00124   0.00133   0.000001000.00000
 379         D159       0.00360   0.00195  -0.000001000.00000
 380         D160      -0.00496   0.00297  -0.000001000.00000
 381         D161      -0.00012   0.00359   0.000001000.00000
 382         D162       0.00101  -0.00243   0.000001000.00000
 383         D163       0.00442  -0.00325   0.000001000.00000
 384         D164      -0.00160  -0.00175  -0.000001000.00000
 385         D165       0.00181  -0.00257   0.000001000.00000
 386         D166      -0.00360   0.00461   0.000001000.00000
 387         D167      -0.00771  -0.00045  -0.000001000.00000
 388         D168      -0.00069   0.00390  -0.000001000.00000
 389         D169      -0.00480  -0.00115   0.000001000.00000
 390         D170       0.00144  -0.00103  -0.000001000.00000
 391         D171       0.00262   0.00169   0.000001000.00000
 392         D172      -0.00212  -0.00018   0.000001000.00000
 393         D173      -0.00095   0.00254   0.000001000.00000
 394         D174       0.00109   0.00164  -0.000001000.00000
 395         D175       0.00257   0.00249   0.000001000.00000
 396         D176      -0.00011  -0.00112  -0.000001000.00000
 397         D177       0.00137  -0.00027  -0.000001000.00000
 398         D178      -0.00009  -0.00026   0.000001000.00000
 399         D179       0.00152   0.00212  -0.000001000.00000
 400         D180      -0.00155  -0.00110   0.000001000.00000
 401         D181       0.00006   0.00128  -0.000001000.00000
 402         D182      -0.00012  -0.00252   0.000001000.00000
 403         D183       0.00413   0.00252   0.000001000.00000
 404         D184      -0.00175  -0.00494  -0.000001000.00000
 405         D185       0.00249   0.00010  -0.000001000.00000
 406         D186       0.01367   0.01494   0.000001000.00000
 407         D187       0.00772   0.00814  -0.000001000.00000
 408         D188       0.00939   0.00982   0.000001000.00000
 409         D189       0.00344   0.00302  -0.000001000.00000
 410         D190       0.00370  -0.00442  -0.000001000.00000
 411         D191      -0.00370  -0.01135  -0.000001000.00000
 412         D192       0.00959   0.00215  -0.000001000.00000
 413         D193       0.00219  -0.00478   0.000001000.00000
 414         D194      -0.00106  -0.00177   0.000001000.00000
 415         D195       0.00023  -0.00043   0.000001000.00000
 416         D196      -0.00043  -0.00134  -0.000001000.00000
 417         D197       0.00086   0.00000  -0.000001000.00000
 RFO step:  Lambda0=3.814360225D-05 Lambda=-1.40468860D-03.
 Linear search not attempted -- option 19 set.
 Maximum step size (   0.300) exceeded in Quadratic search.
    -- Step size scaled by   0.460
 SLEqS3 Cycle:   227 Max:0.667740E-03 RMS:0.608759E-04 Conv:0.119906E-03
 Iteration  1 RMS(Cart)=  0.05969910 RMS(Int)=  0.00112167
 Iteration  2 RMS(Cart)=  0.00148936 RMS(Int)=  0.00019904
 Iteration  3 RMS(Cart)=  0.00000125 RMS(Int)=  0.00019678
 Iteration  4 RMS(Cart)=  0.00000001 RMS(Int)=  0.00019678
 Variable       Old X    -DE/DX   Delta X   Delta X   Delta X     New X
                                 (Linear)    (Quad)   (Total)
    R1        3.47251   0.00009   0.00000  -0.00096  -0.00096   3.47155
    R2        3.47103   0.00012   0.00000   0.00189   0.00189   3.47292
    R3        3.43865  -0.00005   0.00000  -0.00267  -0.00267   3.43598
    R4        4.13564  -0.00049   0.00000  -0.01208  -0.01208   4.12356
    R5        3.82966   0.00007   0.00000   0.00873   0.00852   3.83818
    R6        4.12740   0.00053   0.00000   0.00127   0.00118   4.12857
    R7        8.59819   0.00046   0.00000   0.06798   0.06792   8.66612
    R8        2.15472   0.00022   0.00000   0.00039   0.00039   2.15511
    R9        2.15549  -0.00024   0.00000  -0.00015  -0.00015   2.15534
   R10        2.16260   0.00001   0.00000   0.00032   0.00032   2.16293
   R11        2.52754  -0.00041   0.00000  -0.00022  -0.00022   2.52732
   R12        2.53963  -0.00013   0.00000  -0.00081  -0.00069   2.53895
   R13        2.62720  -0.00020   0.00000  -0.00024  -0.00014   2.62706
   R14        2.06027  -0.00003   0.00000  -0.00019  -0.00001   2.06026
   R15        2.62078  -0.00001   0.00000  -0.00013  -0.00011   2.62067
   R16        2.06349  -0.00000   0.00000   0.00012   0.00012   2.06360
   R17        2.64177   0.00002   0.00000   0.00053   0.00059   2.64235
   R18        2.64927  -0.00039   0.00000  -0.00087  -0.00086   2.64841
   R19        2.05912  -0.00005   0.00000   0.00046   0.00046   2.05959
   R20        7.97138  -0.00014   0.00000  -0.16100  -0.16096   7.81042
   R21        2.17996   0.00048   0.00000   0.00018  -0.00013   2.17983
   R22       18.18817   0.00059   0.00000   0.04603   0.04587  18.23405
   R23        2.70527   0.00016   0.00000   0.00051   0.00020   2.70548
   R24        2.65655  -0.00011   0.00000  -0.00026  -0.00026   2.65629
   R25        2.64848   0.00010   0.00000   0.00041   0.00025   2.64873
   R26        2.62613   0.00008   0.00000   0.00029   0.00030   2.62643
   R27        2.06295  -0.00008   0.00000  -0.00015   0.00008   2.06304
   R28        2.06198  -0.00000   0.00000   0.00001   0.00001   2.06199
   R29        2.63868  -0.00008   0.00000  -0.00025  -0.00014   2.63854
   R30        2.05896  -0.00024   0.00000  -0.00048  -0.00037   2.05859
   R31        2.62920  -0.00010   0.00000  -0.00045  -0.00046   2.62874
   R32       10.79258   0.00049   0.00000   0.03724   0.03733  10.82991
   R33        8.19169  -0.00130   0.00000  -0.21275  -0.21256   7.97913
   R34        2.53895   0.00002   0.00000  -0.00037  -0.00050   2.53844
   R35        2.52716   0.00021   0.00000   0.00042   0.00041   2.52757
   R36        2.62684   0.00011   0.00000   0.00015   0.00019   2.62703
   R37        2.06016  -0.00003   0.00000  -0.00007  -0.00014   2.06001
   R38        2.62010   0.00007   0.00000   0.00016   0.00006   2.62016
   R39        2.64299  -0.00023   0.00000  -0.00017  -0.00011   2.64288
   R40        2.06344  -0.00000   0.00000   0.00004   0.00004   2.06348
   R41        2.05941   0.00003   0.00000   0.00006   0.00006   2.05947
   R42        2.05926  -0.00008   0.00000  -0.00058  -0.00058   2.05868
   R43        2.63787   0.00063   0.00000   0.00060   0.00054   2.63841
   R44        2.63814  -0.00031   0.00000   0.00007   0.00003   2.63816
   R45        7.30429   0.00013   0.00000   0.00062   0.00069   7.30498
   R46        2.04998  -0.00018   0.00000   0.00060   0.00060   2.05058
   R47        2.64547  -0.00012   0.00000   0.00008   0.00016   2.64564
   R48        2.64710   0.00000   0.00000  -0.00080  -0.00075   2.64635
   R49        2.06381   0.00003   0.00000  -0.00029  -0.00021   2.06360
   R50        7.28332  -0.00008   0.00000   0.00141   0.00140   7.28472
   R51        2.81119  -0.00035   0.00000  -0.00096  -0.00083   2.81036
   R52        2.59488  -0.00001   0.00000  -0.00025  -0.00024   2.59463
   R53        2.73575   0.00000   0.00000  -0.00038  -0.00032   2.73543
   R54        2.69240  -0.00016   0.00000  -0.00027  -0.00025   2.69214
   R55        2.06443  -0.00003   0.00000  -0.00013  -0.00013   2.06430
   R56        2.57995  -0.00008   0.00000  -0.00005  -0.00003   2.57991
   R57        2.06270   0.00000   0.00000  -0.00000  -0.00000   2.06269
   R58        2.70524   0.00009   0.00000   0.00043   0.00043   2.70566
   R59        2.06422   0.00001   0.00000   0.00007   0.00007   2.06429
   R60        2.71366  -0.00013   0.00000   0.00020   0.00024   2.71390
   R61        2.71357   0.00018   0.00000  -0.00033  -0.00034   2.71323
   R62        2.73520  -0.00006   0.00000  -0.00140  -0.00142   2.73378
   R63        2.70548  -0.00011   0.00000  -0.00036  -0.00036   2.70512
   R64        2.58036   0.00010   0.00000   0.00011   0.00014   2.58051
   R65        2.06418   0.00001   0.00000   0.00004   0.00004   2.06422
   R66        2.69221   0.00014   0.00000   0.00022   0.00024   2.69245
   R67        2.06274  -0.00001   0.00000   0.00001   0.00001   2.06275
   R68        2.59541  -0.00004   0.00000   0.00007   0.00007   2.59547
   R69        2.06432   0.00003   0.00000   0.00013   0.00013   2.06445
   R70        2.81225   0.00016   0.00000  -0.00103  -0.00100   2.81126
   R71        2.64972   0.00010   0.00000  -0.00093  -0.00092   2.64880
   R72        2.05910  -0.00010   0.00000   0.00024   0.00024   2.05933
   R73        2.63737  -0.00006   0.00000   0.00016   0.00025   2.63762
   R74        2.06322  -0.00003   0.00000  -0.00005  -0.00005   2.06317
   R75        2.06178   0.00000   0.00000  -0.00005  -0.00005   2.06173
    A1        1.59962  -0.00025   0.00000  -0.00024  -0.00022   1.59941
    A2        1.57311  -0.00031   0.00000  -0.00343  -0.00334   1.56977
    A3        3.12135  -0.00002   0.00000   0.00250   0.00272   3.12407
    A4        3.18376  -0.00034   0.00000  -0.00656  -0.00636   3.17740
    A5        1.66034  -0.00001   0.00000  -0.00109  -0.00093   1.65940
    A6        1.52060   0.00017   0.00000   0.00403   0.00405   1.52465
    A7        0.94612   0.00047   0.00000   0.00919   0.00870   0.95482
    A8        1.57684  -0.00009   0.00000  -0.00137  -0.00137   1.57547
    A9        1.52173   0.00022   0.00000   0.00275   0.00294   1.52467
   A10        1.65369   0.00012   0.00000   0.00085   0.00051   1.65421
   A11        3.12022  -0.00007   0.00000   0.00378   0.00383   3.12405
   A12        3.09665   0.00010   0.00000   0.00414   0.00412   3.10077
   A13        0.98948  -0.00006   0.00000  -0.00075  -0.00013   0.98935
   A14        1.61073  -0.00003   0.00000  -0.00316  -0.00305   1.60768
   A15        3.23344  -0.00032   0.00000  -0.00451  -0.00427   3.22917
   A16        3.23356   0.00000   0.00000  -0.00068  -0.00100   3.23256
   A17        1.60970  -0.00002   0.00000  -0.00284  -0.00281   1.60689
   A18        2.51923   0.00016   0.00000   0.00576   0.00536   2.52459
   A19        2.37504   0.00042   0.00000   0.00453   0.00493   2.37998
   A20        1.44106   0.00035   0.00000   0.00740   0.00702   1.44808
   A21        1.63930  -0.00013   0.00000  -0.00605  -0.00632   1.63298
   A22        2.15109  -0.00025   0.00000  -0.00280  -0.00230   2.14878
   A23        1.44520  -0.00002   0.00000   0.00288   0.00319   1.44840
   A24        2.10543   0.00006   0.00000   0.00613   0.00555   2.11098
   A25        3.19119   0.00021   0.00000   0.00456   0.00451   3.19570
   A26        3.12502   0.00028   0.00000   0.00605   0.00606   3.13108
   A27        3.09732   0.00022   0.00000   0.00634   0.00636   3.10368
   A28        3.07755  -0.00011   0.00000  -0.00166  -0.00172   3.07583
   A29        3.13260  -0.00018   0.00000  -0.00606  -0.00606   3.12654
   A30        3.19562  -0.00036   0.00000  -0.01271  -0.01271   3.18291
   A31        3.13535  -0.00006   0.00000  -0.01304  -0.01304   3.12231
   A32        3.14862  -0.00028   0.00000  -0.01438  -0.01438   3.13425
   A33        2.15312   0.00006   0.00000  -0.00224  -0.00230   2.15082
   A34        2.07390  -0.00021   0.00000   0.00052   0.00050   2.07440
   A35        2.05174   0.00015   0.00000   0.00161   0.00168   2.05342
   A36        2.11859  -0.00001   0.00000   0.00026   0.00002   2.11862
   A37        2.07694  -0.00006   0.00000  -0.00003  -0.00011   2.07683
   A38        2.08724   0.00007   0.00000  -0.00027   0.00004   2.08727
   A39        2.10380  -0.00002   0.00000  -0.00076  -0.00081   2.10299
   A40        2.08257  -0.00004   0.00000   0.00023   0.00033   2.08289
   A41        2.09680   0.00006   0.00000   0.00054   0.00049   2.09729
   A42        2.16554  -0.00004   0.00000  -0.00077  -0.00080   2.16474
   A43        2.03267   0.00000   0.00000   0.00014   0.00015   2.03282
   A44        2.08498   0.00004   0.00000   0.00063   0.00064   2.08562
   A45        1.17142   0.00011   0.00000   0.04173   0.04195   1.21337
   A46        3.04248  -0.00028   0.00000   0.00157   0.00198   3.04446
   A47        2.93377  -0.00019   0.00000   0.02318   0.02275   2.95652
   A48        1.83375   0.00004   0.00000   0.03663   0.03634   1.87009
   A49        3.09004  -0.00010   0.00000   0.00526   0.00486   3.09490
   A50        3.01844  -0.00003   0.00000   0.00683   0.00665   3.02508
   A51        3.02881   0.00001   0.00000   0.00576   0.00558   3.03439
   A52        3.20446  -0.00004   0.00000  -0.02785  -0.02813   3.17632
   A53        2.04524   0.00003   0.00000   0.00404   0.00396   2.04921
   A54        2.12676   0.00009   0.00000  -0.00352  -0.00369   2.12307
   A55        2.11115  -0.00012   0.00000  -0.00049  -0.00026   2.11090
   A56        2.08187   0.00001   0.00000  -0.00007  -0.00022   2.08165
   A57        2.09169   0.00012   0.00000   0.00142   0.00136   2.09305
   A58        2.10962  -0.00013   0.00000  -0.00133  -0.00113   2.10849
   A59        2.09063  -0.00004   0.00000  -0.00037  -0.00035   2.09027
   A60        2.09349   0.00005   0.00000   0.00038   0.00035   2.09384
   A61        2.09907  -0.00002   0.00000  -0.00001   0.00001   2.09907
   A62        2.10437  -0.00024   0.00000  -0.00223  -0.00254   2.10183
   A63        2.07688   0.00012   0.00000   0.00068   0.00061   2.07748
   A64        2.10188   0.00012   0.00000   0.00165   0.00199   2.10387
   A65        1.83460   0.00023   0.00000   0.05788   0.05834   1.89294
   A66        1.15373  -0.00017   0.00000   0.01253   0.01260   1.16634
   A67        2.40051   0.00004   0.00000   0.02744   0.02677   2.42728
   A68        2.06594   0.00009   0.00000   0.00429   0.00408   2.07002
   A69        2.15989   0.00010   0.00000  -0.00298  -0.00285   2.15704
   A70        2.05132  -0.00018   0.00000   0.00007   0.00008   2.05141
   A71        2.12459  -0.00022   0.00000  -0.00177  -0.00154   2.12305
   A72        2.07730   0.00005   0.00000  -0.00024  -0.00021   2.07710
   A73        2.08095   0.00017   0.00000   0.00203   0.00176   2.08271
   A74        2.08249  -0.00002   0.00000  -0.00047  -0.00052   2.08197
   A75        2.10355   0.00005   0.00000   0.00056   0.00058   2.10413
   A76        2.09713  -0.00003   0.00000  -0.00007  -0.00005   2.09708
   A77        1.66483  -0.00001   0.00000   0.00424   0.00365   1.66848
   A78        2.14281  -0.00009   0.00000  -0.00075  -0.00078   2.14203
   A79        2.04239   0.00008   0.00000   0.00009   0.00010   2.04249
   A80        2.09795   0.00001   0.00000   0.00066   0.00068   2.09862
   A81        2.14313   0.00004   0.00000   0.00026   0.00029   2.14342
   A82        2.04433  -0.00005   0.00000  -0.00032  -0.00034   2.04399
   A83        2.09569   0.00001   0.00000   0.00008   0.00006   2.09575
   A84        2.14664  -0.00008   0.00000  -0.00060  -0.00055   2.14608
   A85        1.07603  -0.00018   0.00000  -0.00004   0.00001   1.07604
   A86        2.06947  -0.00021   0.00000  -0.00042  -0.00045   2.06902
   A87        1.07826   0.00010   0.00000  -0.00109  -0.00108   1.07717
   A88        2.06661   0.00029   0.00000   0.00088   0.00085   2.06747
   A89        2.13010   0.00006   0.00000   0.00045   0.00042   2.13052
   A90        2.07294  -0.00033   0.00000   0.00065   0.00068   2.07362
   A91        1.06862   0.00003   0.00000  -0.00009  -0.00011   1.06852
   A92        2.08013   0.00028   0.00000  -0.00111  -0.00112   2.07901
   A93        1.06803   0.00003   0.00000   0.00020   0.00018   1.06821
   A94        2.04095   0.00007   0.00000   0.00014   0.00009   2.04104
   A95        2.11334   0.00003   0.00000   0.00013   0.00016   2.11350
   A96        2.12870  -0.00010   0.00000  -0.00021  -0.00021   2.12850
   A97        2.09784  -0.00021   0.00000  -0.00019  -0.00020   2.09764
   A98        2.10771   0.00008   0.00000   0.00004   0.00011   2.10782
   A99        2.07745   0.00013   0.00000   0.00022   0.00015   2.07761
   A100       2.12220   0.00004   0.00000   0.00018   0.00019   2.12238
   A101       2.08786  -0.00008   0.00000  -0.00061  -0.00062   2.08724
   A102       2.07294   0.00004   0.00000   0.00042   0.00041   2.07335
   A103       2.10483  -0.00008   0.00000  -0.00011  -0.00008   2.10475
   A104       2.07802   0.00002   0.00000  -0.00020  -0.00021   2.07781
   A105       2.10025   0.00006   0.00000   0.00031   0.00029   2.10055
   A106       2.10219   0.00000   0.00000  -0.00010  -0.00010   2.10209
   A107       2.10757  -0.00000   0.00000  -0.00008  -0.00007   2.10749
   A108       2.07335  -0.00000   0.00000   0.00018   0.00018   2.07352
   A109       2.12772  -0.00015   0.00000   0.00004   0.00008   2.12780
   A110       2.07701   0.00001   0.00000  -0.00008  -0.00007   2.07693
   A111       2.07837   0.00014   0.00000   0.00002  -0.00002   2.07836
   A112       2.13834   0.00025   0.00000  -0.00001  -0.00004   2.13829
   A113       2.06380  -0.00002   0.00000   0.00023   0.00020   2.06400
   A114       2.08102  -0.00023   0.00000  -0.00023  -0.00016   2.08086
   A115       2.06419   0.00001   0.00000   0.00092   0.00094   2.06513
   A116       2.13521  -0.00013   0.00000  -0.00038  -0.00045   2.13476
   A117       2.08375   0.00012   0.00000  -0.00055  -0.00049   2.08326
   A118       2.07624   0.00001   0.00000  -0.00023  -0.00025   2.07599
   A119       2.13000   0.00009   0.00000  -0.00015  -0.00010   2.12990
   A120       2.07686  -0.00010   0.00000   0.00038   0.00034   2.07720
   A121       2.10179   0.00000   0.00000   0.00001   0.00001   2.10180
   A122       2.07428  -0.00006   0.00000  -0.00083  -0.00083   2.07345
   A123       2.10704   0.00006   0.00000   0.00082   0.00082   2.10786
   A124       2.10576   0.00007   0.00000  -0.00019  -0.00018   2.10558
   A125       2.10008  -0.00006   0.00000  -0.00009  -0.00009   2.09999
   A126       2.07726  -0.00001   0.00000   0.00030   0.00029   2.07755
   A127       2.12235  -0.00009   0.00000  -0.00070  -0.00073   2.12162
   A128       2.07288   0.00004   0.00000   0.00036   0.00036   2.07325
   A129       2.08771   0.00004   0.00000   0.00042   0.00042   2.08813
   A130       2.07552  -0.00000   0.00000   0.00110   0.00109   2.07661
   A131       2.11033  -0.00039   0.00000  -0.00440  -0.00450   2.10583
   A132       2.09721   0.00039   0.00000   0.00325   0.00336   2.10057
   A133       2.11433  -0.00007   0.00000  -0.00012  -0.00005   2.11428
   A134       2.04011   0.00001   0.00000   0.00093   0.00090   2.04101
   A135       2.12858   0.00006   0.00000  -0.00096  -0.00103   2.12755
   A136       2.16635   0.00010   0.00000  -0.00059  -0.00058   2.16577
   A137       2.03097  -0.00001   0.00000   0.00098   0.00097   2.03194
   A138       2.08586  -0.00009   0.00000  -0.00038  -0.00039   2.08547
   A139       2.10375  -0.00003   0.00000  -0.00016  -0.00011   2.10365
   A140       2.08990  -0.00000   0.00000  -0.00007  -0.00010   2.08980
   A141       2.08953   0.00003   0.00000   0.00025   0.00021   2.08974
   A142       2.09920  -0.00003   0.00000  -0.00029  -0.00035   2.09885
   A143       2.08664   0.00002   0.00000  -0.00007  -0.00004   2.08660
   A144       2.09735   0.00002   0.00000   0.00036   0.00039   2.09773
   A145       0.00003   0.00036   0.00000   0.00177   0.00187   0.00190
    D1        2.25998  -0.00023   0.00000  -0.00684  -0.00675   2.25323
    D2       -0.98511  -0.00013   0.00000  -0.00803  -0.00809  -0.99320
    D3        0.68509  -0.00015   0.00000  -0.00573  -0.00564   0.67946
    D4       -2.56000  -0.00005   0.00000  -0.00693  -0.00697  -2.56697
    D5       -2.36228  -0.00016   0.00000  -0.00681  -0.00704  -2.36931
    D6        0.67582  -0.00006   0.00000  -0.00800  -0.00837   0.66745
    D7       -0.92747  -0.00013   0.00000  -0.00240  -0.00236  -0.92983
    D8        2.11062  -0.00003   0.00000  -0.00359  -0.00369   2.10693
    D9        3.06985   0.00007   0.00000  -0.00332  -0.00257   3.06727
   D10       -0.17524   0.00017   0.00000  -0.00451  -0.00391  -0.17915
   D11       -2.42604  -0.00015   0.00000  -0.03999  -0.03982  -2.46586
   D12        0.66153  -0.00012   0.00000  -0.03980  -0.03931   0.62222
   D13        2.21503   0.00002   0.00000  -0.03560  -0.03557   2.17946
   D14       -0.98058   0.00005   0.00000  -0.03540  -0.03507  -1.01565
   D15        0.74529  -0.00019   0.00000  -0.04454  -0.04445   0.70084
   D16       -2.45032  -0.00017   0.00000  -0.04435  -0.04394  -2.49427
   D17       -0.95747  -0.00003   0.00000  -0.03045  -0.03044  -0.98791
   D18        2.13010  -0.00001   0.00000  -0.03026  -0.02994   2.10017
   D19        0.98882   0.00041   0.00000   0.02126   0.02127   1.01009
   D20       -2.27368   0.00053   0.00000   0.03513   0.03514  -2.23854
   D21        2.55997   0.00011   0.00000   0.01812   0.01822   2.57819
   D22       -0.70252   0.00023   0.00000   0.03199   0.03208  -0.67044
   D23       -2.10969   0.00007   0.00000   0.01450   0.01472  -2.09497
   D24        0.91100   0.00019   0.00000   0.02837   0.02858   0.93958
   D25       -0.67872   0.00044   0.00000   0.02306   0.02293  -0.65578
   D26        2.34197   0.00056   0.00000   0.03693   0.03680   2.37877
   D27        0.20793  -0.00034   0.00000   0.00945   0.00969   0.21762
   D28       -3.05457  -0.00022   0.00000   0.02332   0.02356  -3.03101
   D29        2.92386   0.00006   0.00000   0.00317   0.00290   2.92676
   D30       -0.21701   0.00003   0.00000  -0.00159  -0.00176  -0.21877
   D31       -0.11546  -0.00002   0.00000   0.00440   0.00428  -0.11118
   D32        3.02685  -0.00005   0.00000  -0.00036  -0.00038   3.02647
   D33       -2.99192  -0.00009   0.00000  -0.00028   0.00001  -2.99191
   D34        0.14024  -0.00000   0.00000  -0.00029  -0.00015   0.14009
   D35        0.05219   0.00000   0.00000  -0.00163  -0.00148   0.05071
   D36       -3.09883   0.00009   0.00000  -0.00164  -0.00164  -3.10048
   D37       -0.03790  -0.00001   0.00000   0.00411   0.00416  -0.03374
   D38        3.11108   0.00000   0.00000   0.00328   0.00328   3.11437
   D39        3.07257   0.00003   0.00000   0.00248   0.00248   3.07505
   D40       -0.06163   0.00004   0.00000   0.00166   0.00160  -0.06003
   D41        1.82602   0.00007   0.00000   0.01275   0.01363   1.83965
   D42       -1.28427   0.00003   0.00000   0.01438   0.01532  -1.26894
   D43        0.03436  -0.00001   0.00000  -0.00128  -0.00135   0.03301
   D44       -3.09751  -0.00010   0.00000  -0.00127  -0.00118  -3.09869
   D45       -3.13778   0.00003   0.00000  -0.00287  -0.00300  -3.14079
   D46        0.01353  -0.00006   0.00000  -0.00286  -0.00283   0.01069
   D47        0.00508  -0.00005   0.00000   0.00076   0.00086   0.00594
   D48        3.12569  -0.00002   0.00000   0.00372   0.00378   3.12947
   D49       -3.12915  -0.00004   0.00000  -0.00005  -0.00001  -3.12916
   D50       -0.00854  -0.00001   0.00000   0.00290   0.00291  -0.00563
   D51        0.08730   0.00004   0.00000  -0.00405  -0.00405   0.08324
   D52       -3.03312   0.00001   0.00000  -0.00703  -0.00700  -3.04012
   D53       -3.05504   0.00007   0.00000   0.00084   0.00074  -3.05430
   D54        0.10773   0.00004   0.00000  -0.00214  -0.00221   0.10552
   D55        2.53302  -0.00016   0.00000  -0.05301  -0.05285   2.48016
   D56       -0.12785   0.00003   0.00000  -0.03782  -0.03764  -0.16549
   D57        2.99700   0.00001   0.00000  -0.03801  -0.03784   2.95916
   D58       -1.13806   0.00008   0.00000  -0.00192  -0.00192  -1.13999
   D59        3.13900  -0.00009   0.00000  -0.00135  -0.00161   3.13739
   D60        0.00159  -0.00010   0.00000  -0.00587  -0.00601  -0.00442
   D61        0.00591  -0.00005   0.00000  -0.00495  -0.00488   0.00103
   D62       -3.13150  -0.00005   0.00000  -0.00947  -0.00929  -3.14078
   D63       -0.00778   0.00024   0.00000   0.01084   0.01172   0.00394
   D64       -3.13844   0.00014   0.00000   0.00065   0.00111  -3.13733
   D65        3.12490   0.00020   0.00000   0.01466   0.01517   3.14007
   D66       -0.00576   0.00009   0.00000   0.00446   0.00457  -0.00120
   D67       -3.14147  -0.00001   0.00000  -0.00016  -0.00017   3.14155
   D68       -0.00127  -0.00002   0.00000   0.00134   0.00116  -0.00011
   D69       -0.00410  -0.00000   0.00000   0.00441   0.00428   0.00018
   D70        3.13610  -0.00001   0.00000   0.00592   0.00561  -3.14148
   D71       -1.25825   0.00009   0.00000  -0.00198  -0.00122  -1.25947
   D72        1.88759   0.00008   0.00000  -0.00658  -0.00569   1.88190
   D73       -0.00344   0.00004   0.00000   0.00268   0.00281  -0.00063
   D74       -3.14148  -0.00001   0.00000  -0.00100  -0.00093   3.14078
   D75        3.13675   0.00003   0.00000   0.00419   0.00415   3.14090
   D76       -0.00129  -0.00002   0.00000   0.00051   0.00041  -0.00088
   D77       -0.95550  -0.00006   0.00000  -0.00516  -0.00547  -0.96097
   D78        0.12827   0.00026   0.00000   0.04556   0.04637   0.17464
   D79        2.17501   0.00005   0.00000   0.00518   0.00529   2.18029
   D80       -3.02441   0.00037   0.00000   0.05589   0.05713  -2.96728
   D81        0.00100  -0.00006   0.00000  -0.00039  -0.00055   0.00045
   D82        3.14116   0.00000   0.00000   0.00208   0.00214  -3.13988
   D83       -3.12969  -0.00017   0.00000  -0.01054  -0.01114  -3.14082
   D84        0.01048  -0.00010   0.00000  -0.00808  -0.00845   0.00203
   D85        1.42810   0.00042   0.00000   0.03958   0.03945   1.46755
   D86        2.96444   0.00011   0.00000   0.01425   0.01431   2.97875
   D87       -0.16804   0.00014   0.00000   0.01210   0.01220  -0.15584
   D88       -0.06383  -0.00002   0.00000   0.00149   0.00151  -0.06231
   D89        3.08688   0.00001   0.00000  -0.00067  -0.00060   3.08628
   D90       -2.90533  -0.00014   0.00000  -0.01416  -0.01422  -2.91955
   D91        0.23931  -0.00012   0.00000  -0.01616  -0.01615   0.22316
   D92        0.11630  -0.00000   0.00000  -0.00013  -0.00023   0.11606
   D93       -3.02225   0.00001   0.00000  -0.00212  -0.00216  -3.02441
   D94       -3.11014  -0.00001   0.00000   0.00174   0.00154  -3.10860
   D95        0.03790  -0.00006   0.00000  -0.00036  -0.00045   0.03745
   D96        0.06005  -0.00001   0.00000   0.00114   0.00101   0.06106
   D97       -3.07510  -0.00006   0.00000  -0.00097  -0.00098  -3.07607
   D98       -2.51192  -0.00025   0.00000  -0.05082  -0.05047  -2.56238
   D99        0.60102  -0.00026   0.00000  -0.05025  -0.04997   0.55105
   D100      -0.02223   0.00003   0.00000  -0.00204  -0.00195  -0.02419
   D101       3.10998   0.00001   0.00000   0.00017   0.00022   3.11020
   D102      -3.13595   0.00004   0.00000  -0.00257  -0.00242  -3.13837
   D103      -0.00374   0.00001   0.00000  -0.00036  -0.00024  -0.00398
   D104      -3.13554  -0.00004   0.00000   0.00869   0.00879  -3.12676
   D105      -0.01329  -0.00002   0.00000   0.00015   0.00020  -0.01309
   D106      -0.00037   0.00002   0.00000   0.01079   0.01077   0.01040
   D107       3.12188   0.00004   0.00000   0.00225   0.00218   3.12407
   D108      -3.02873   0.00002   0.00000  -0.00566  -0.00575  -3.03447
   D109       0.12043   0.00002   0.00000  -0.00441  -0.00445   0.11598
   D110       3.11938   0.00002   0.00000  -0.00101  -0.00105   3.11833
   D111      -0.01464   0.00002   0.00000   0.00024   0.00025  -0.01440
   D112       0.14632  -0.00000   0.00000  -0.00078  -0.00081   0.14551
   D113      -2.98771  -0.00000   0.00000   0.00046   0.00049  -2.98722
   D114      -0.12204  -0.00001   0.00000   0.00556   0.00562  -0.11642
   D115       3.02926  -0.00006   0.00000   0.00617   0.00627   3.03553
   D116       0.01287  -0.00004   0.00000   0.00100   0.00101   0.01388
   D117      -3.11901  -0.00008   0.00000   0.00160   0.00165  -3.11736
   D118       2.98615  -0.00000   0.00000   0.00067   0.00066   2.98682
   D119      -0.14573  -0.00004   0.00000   0.00128   0.00131  -0.14442
   D120       0.32873  -0.00004   0.00000   0.01677   0.01680   0.34553
   D121      -2.68432  -0.00004   0.00000   0.01248   0.01245  -2.67187
   D122       3.08234   0.00004   0.00000   0.00437   0.00446   3.08680
   D123      -0.07334   0.00004   0.00000   0.00342   0.00349  -0.06985
   D124      -0.06488   0.00007   0.00000   0.00145   0.00148  -0.06340
   D125       3.06263   0.00007   0.00000   0.00050   0.00050   3.06313
   D126      -3.07655   0.00001   0.00000   0.00118   0.00121  -3.07533
   D127       0.05096   0.00001   0.00000   0.00022   0.00024   0.05120
   D128       0.07171  -0.00003   0.00000  -0.00222  -0.00227   0.06944
   D129      -3.08470  -0.00001   0.00000  -0.00244  -0.00252  -3.08722
   D130      -3.06423  -0.00006   0.00000   0.00071   0.00072  -3.06351
   D131       0.06254  -0.00005   0.00000   0.00048   0.00047   0.06301
   D132      -0.05263  -0.00000   0.00000   0.00100   0.00100  -0.05163
   D133       3.07414   0.00001   0.00000   0.00077   0.00075   3.07489
   D134       0.80126   0.00007   0.00000  -0.00913  -0.00895   0.79232
   D135      -2.31968   0.00002   0.00000  -0.01344  -0.01324  -2.33292
   D136      -2.36237   0.00010   0.00000  -0.00603  -0.00588  -2.36825
   D137       0.79986   0.00005   0.00000  -0.01033  -0.01017   0.78970
   D138      -3.11797  -0.00008   0.00000  -0.00134  -0.00138  -3.11935
   D139       0.04508  -0.00004   0.00000  -0.00044  -0.00045   0.04463
   D140       0.00333  -0.00003   0.00000   0.00289   0.00284   0.00617
   D141      -3.11680   0.00001   0.00000   0.00378   0.00377  -3.11303
   D142       0.00311   0.00010   0.00000   0.00360   0.00367   0.00678
   D143       3.13707   0.00010   0.00000   0.00235   0.00237   3.13943
   D144      -3.11808   0.00005   0.00000  -0.00065  -0.00057  -3.11864
   D145       0.01588   0.00005   0.00000  -0.00190  -0.00187   0.01401
   D146      -0.01108  -0.00001   0.00000  -0.00201  -0.00198  -0.01307
   D147      -3.13905   0.00000   0.00000  -0.00219  -0.00216  -3.14121
   D148       3.10922  -0.00006   0.00000  -0.00290  -0.00291   3.10631
   D149      -0.01874  -0.00004   0.00000  -0.00308  -0.00309  -0.02184
   D150      -0.00103   0.00003   0.00000   0.00005   0.00007  -0.00096
   D151      -3.12884   0.00001   0.00000  -0.00011  -0.00012  -3.12896
   D152       3.12676   0.00002   0.00000   0.00023   0.00025   3.12701
   D153      -0.00104   0.00000   0.00000   0.00007   0.00006  -0.00099
   D154      -3.13554  -0.00000   0.00000  -0.00009  -0.00015  -3.13569
   D155       0.02014  -0.00001   0.00000   0.00087   0.00083   0.02097
   D156      -0.00747   0.00001   0.00000   0.00007   0.00004  -0.00743
   D157      -3.13497   0.00001   0.00000   0.00102   0.00102  -3.13395
   D158      -0.02104  -0.00003   0.00000  -0.00022  -0.00024  -0.02128
   D159       3.12787  -0.00003   0.00000   0.00098   0.00101   3.12888
   D160       3.10688  -0.00003   0.00000  -0.00115  -0.00119   3.10569
   D161      -0.02740  -0.00003   0.00000   0.00005   0.00006  -0.02734
   D162       0.02423   0.00003   0.00000  -0.00214  -0.00216   0.02208
   D163      -3.10300   0.00002   0.00000  -0.00191  -0.00191  -3.10491
   D164      -3.12677   0.00007   0.00000  -0.00272  -0.00278  -3.12956
   D165       0.02918   0.00006   0.00000  -0.00250  -0.00254   0.02664
   D166       3.11254   0.00000   0.00000   0.00374   0.00370   3.11624
   D167      -0.01253  -0.00007   0.00000   0.00708   0.00707  -0.00546
   D168      -0.01924  -0.00004   0.00000   0.00435   0.00435  -0.01489
   D169       3.13887  -0.00011   0.00000   0.00769   0.00772  -3.13660
   D170       3.13734  -0.00004   0.00000  -0.00036  -0.00030   3.13705
   D171       0.00901  -0.00005   0.00000  -0.00065  -0.00062   0.00840
   D172      -0.01907  -0.00002   0.00000  -0.00059  -0.00055  -0.01962
   D173       3.13578  -0.00003   0.00000  -0.00088  -0.00087   3.13491
   D174      -0.00125  -0.00002   0.00000   0.00184   0.00184   0.00059
   D175      -3.12833   0.00000   0.00000   0.00056   0.00054  -3.12779
   D176       3.12683  -0.00001   0.00000   0.00213   0.00216   3.12899
   D177      -0.00024   0.00001   0.00000   0.00084   0.00085   0.00061
   D178       0.01173   0.00003   0.00000   0.00008   0.00005   0.01178
   D179      -3.10601   0.00003   0.00000  -0.00326  -0.00328  -3.10929
   D180       3.13899   0.00001   0.00000   0.00134   0.00133   3.14032
   D181       0.02125   0.00001   0.00000  -0.00199  -0.00199   0.01926
   D182      -0.00115  -0.00000   0.00000  -0.00317  -0.00315  -0.00430
   D183       3.12405   0.00006   0.00000  -0.00656  -0.00658   3.11747
   D184       3.11639   0.00000   0.00000   0.00019   0.00020   3.11660
   D185      -0.04159   0.00006   0.00000  -0.00320  -0.00323  -0.04482
   D186       2.32944   0.00003   0.00000  -0.01685  -0.01699   2.31245
   D187      -0.79183   0.00001   0.00000  -0.00789  -0.00799  -0.79982
   D188      -0.79543  -0.00004   0.00000  -0.01344  -0.01356  -0.80899
   D189       2.36649  -0.00006   0.00000  -0.00449  -0.00456   2.36193
   D190      -0.07833   0.00001   0.00000  -0.00068  -0.00061  -0.07894
   D191       3.06012  -0.00000   0.00000   0.00137   0.00138   3.06150
   D192       3.04375   0.00003   0.00000  -0.00929  -0.00926   3.03450
   D193      -0.10097   0.00002   0.00000  -0.00723  -0.00727  -0.10824
   D194       0.00359  -0.00000   0.00000  -0.00318  -0.00313   0.00046
   D195      -3.13657  -0.00007   0.00000  -0.00565  -0.00583   3.14079
   D196      -3.14156   0.00005   0.00000   0.00051   0.00061  -3.14095
   D197       0.00147  -0.00002   0.00000  -0.00197  -0.00210  -0.00063
         Item               Value     Threshold  Converged?
 Maximum Force            0.001301     0.000450     NO 
 RMS     Force            0.000161     0.000300     YES
 Maximum Displacement     0.382062     0.001800     NO 
 RMS     Displacement     0.060102     0.001200     NO 
 Predicted change in Energy=-5.694277D-04
 GradGradGradGradGradGradGradGradGradGradGradGradGradGradGradGradGradGrad

 Stoichiometry    C34H21BrMnN3O3
 Framework group  C1[X(C34H21BrMnN3O3)]
 Deg. of freedom   183
 Full point group                 C1      NOp   1
 Largest Abelian subgroup         C1      NOp   1
 Largest concise Abelian subgroup C1      NOp   1
                         Standard orientation:                         
 ---------------------------------------------------------------------
 Center     Atomic      Atomic             Coordinates (Angstroms)
 Number     Number       Type             X           Y           Z
 ---------------------------------------------------------------------
      1         25           0        1.410114   -1.466637    0.284530
      2          6           0        2.471529   -1.902707    1.719123
      3          8           0        3.071946   -2.206541    2.639870
      4          6           0        2.446003   -2.470352   -0.854314
      5          8           0        3.048328   -3.115884   -1.576370
      6          6           0        0.362946   -2.914325    0.621643
      7          7           0        0.217344   -0.907924   -1.455205
      8          6           0        0.130542    0.220303   -3.567714
      9          6           0       -1.259288    0.196700   -3.547069
     10          6           0       -1.115508   -1.011105   -1.493851
     11          1           0        0.678463    0.682475   -4.389181
     12          1           0       -1.833467    0.672296   -4.344952
     13          7           0        2.361621    0.282021   -0.118086
     14          6           0        2.680675    1.368405   -0.338473
     15          6           0        2.913922    2.753999   -0.613107
     16          6           0        1.803376    3.539252   -0.967953
     17          6           0        1.984968    4.890497   -1.237844
     18          6           0        4.195539    3.315018   -0.527479
     19          1           0        0.812458    3.085155   -1.028875
     20          1           0        5.050085    2.698869   -0.250323
     21          7           0        0.253785   -0.213189    1.650139
     22          6           0        0.216718    1.726488    3.057806
     23          6           0       -1.172827    1.702666    3.091842
     24          1           0        0.788340    2.496634    3.575945
     25          6           0        0.828012   -0.322997   -2.499273
     26          1           0        1.916716   -0.279659   -2.475484
     27          6           0        0.887792    0.764457    2.318466
     28          1           0        1.975213    0.784247    2.255814
     29          1           0        1.128504    5.507575   -1.514094
     30          8           0       -0.307788   -3.821642    0.813823
     31          6           0       -3.420225    0.193224   -0.016349
     32          6           0       -6.193587    0.086226    0.040838
     33          6           0       -1.918152   -0.436364   -2.488629
     34          6           0       -3.403305   -0.471550   -2.419502
     35          6           0       -4.139189   -0.783481   -3.535905
     36          6           0       -5.563493   -0.799857   -3.510655
     37          6           0       -6.241309   -0.517529   -2.359693
     38          6           0       -5.530091   -0.201249   -1.157978
     39          6           0       -4.094846   -0.159642   -1.186695
     40          1           0       -3.626335   -1.046498   -4.463860
     41          1           0       -6.106870   -1.054084   -4.422546
     42          1           0       -7.333143   -0.540823   -2.334462
     43          6           0       -4.066602    0.374576    1.207694
     44          6           0       -5.501546    0.332713    1.233069
     45          6           0       -6.181054    0.562012    2.471960
     46          6           0       -5.473068    0.793996    3.616359
     47          6           0       -4.048528    0.812651    3.597752
     48          6           0       -3.342101    0.613605    2.436827
     49          1           0       -7.272986    0.535616    2.485988
     50          1           0       -5.992693    0.955863    4.562558
     51          1           0       -3.512147    0.970708    4.536252
     52          6           0       -1.855495    0.669083    2.442520
     53          1           0       -1.728782    2.483158    3.615378
     54          6           0       -1.076123   -0.284722    1.773522
     55          1           0       -1.559648   -1.148416    1.317673
     56          1           0       -1.581740   -1.585390   -0.693429
     57          6           0        3.260156    5.453103   -1.154764
     58          6           0        4.359397    4.669035   -0.801096
     59          1           0        5.353493    5.114219   -0.738586
     60          1           0        3.398603    6.514810   -1.368316
     61         35           0        5.995082   -1.377783    0.312104
     62          1           0       -7.284846    0.126683    0.041731
     63          1           0       -2.350529    0.368304   -0.067140
 ---------------------------------------------------------------------
 Rotational constants (GHZ):           0.1026884           0.0448776           0.0441675
 Basis read from rwf:  (5D, 7F)
 There are   802 symmetry adapted cartesian basis functions of A   symmetry.
 There are   751 symmetry adapted basis functions of A   symmetry.
   751 basis functions,  1339 primitive gaussians,   802 cartesian basis functions
   165 alpha electrons      165 beta electrons
       nuclear repulsion energy      5855.3187054780 Hartrees.
 NAtoms=   63 NActive=   63 NUniq=   63 SFac= 1.00D+00 NAtFMM=   60 NAOKFM=T Big=T
 Integral buffers will be    131072 words long.
 Raffenetti 2 integral format.
 Two-electron integral symmetry is turned on.
 Nuclear repulsion after empirical dispersion term =     5855.2547016099 Hartrees.
 ------------------------------------------------------------------------------
 Polarizable Continuum Model (PCM)
 =================================
 Model                : PCM.
 Atomic radii         : UFF (Universal Force Field).
 Polarization charges : Total charges.
 Charge compensation  : None.
 Solution method      : On-the-fly selection.
 Cavity type          : Scaled VdW (van der Waals Surface) (Alpha=1.100).
 Cavity algorithm     : GePol (No added spheres)
                        Default sphere list used, NSphG=   63.
                        Lebedev-Laikov grids with approx.  5.0 points / Ang**2.
                        Smoothing algorithm: York/Karplus (Gamma=1.0000).
                        Polarization charges: spherical gaussians, with
                                              point-specific exponents (IZeta= 3).
                        Self-potential: point-specific (ISelfS= 7).
                        Self-field    : sphere-specific E.n sum rule (ISelfD= 2).
 1st derivatives      : Analytical E(r).r(x)/FMM algorithm (CHGder, D1EAlg=3).
                        Cavity 1st derivative terms included.
 Solvent              : TetraHydroFuran, Eps=   7.425700 Eps(inf)=   1.974025
 ------------------------------------------------------------------------------
 One-electron integrals computed using PRISM.
 PrsmSu:  requested number of processors reduced to:  11 ShMem   1 Linda.
 NBasis=   751 RedAO= T EigKep=  2.22D-04  NBF=   751
 NBsUse=   751 1.00D-06 EigRej= -1.00D+00 NBFU=   751
 Initial guess from the checkpoint file:  "checkpoint.chk"
 B after Tr=    -0.000000   -0.000000    0.000000
         Rot=    0.998691   -0.050404    0.003425    0.008039 Ang=  -5.86 deg.
 ExpMin= 3.93D-02 ExpMax= 2.77D+05 ExpMxC= 1.70D+04 IAcc=3 IRadAn=         5 AccDes= 0.00D+00
 Harris functional with IExCor= 4639 and IRadAn=       5 diagonalized for initial guess.
 HarFok:  IExCor= 4639 AccDes= 0.00D+00 IRadAn=         5 IDoV= 1 UseB2=F ITyADJ=14
 ICtDFT=  3500011 ScaDFX=  1.000000  1.000000  1.000000  1.000000
 FoFCou: FMM=F IPFlag=           0 FMFlag=      100000 FMFlg1=        2001
         NFxFlg=           0 DoJE=T BraDBF=F KetDBF=T FulRan=T
         wScrn=  0.000000 ICntrl=       500 IOpCl=  0 I1Cent=   200000004 NGrid=           0
         NMat0=    1 NMatS0=      1 NMatT0=    0 NMatD0=    1 NMtDS0=    0 NMtDT0=    0
 Petite list used in FoFCou.
 Requested convergence on RMS density matrix=1.00D-08 within 128 cycles.
 Requested convergence on MAX density matrix=1.00D-06.
 Requested convergence on             energy=1.00D-06.
 No special actions if energy rises.
 CoulSu:  requested number of processors reduced to:   8 ShMem   1 Linda.
 Inv3:  Mode=1 IEnd=    71501772.
 Iteration    1 A*A^-1 deviation from unit magnitude is 3.44D-15 for   1016.
 Iteration    1 A*A^-1 deviation from orthogonality  is 2.22D-15 for   4292   1371.
 Iteration    1 A^-1*A deviation from unit magnitude is 3.66D-15 for   1016.
 Iteration    1 A^-1*A deviation from orthogonality  is 2.22D-15 for   2508     45.
 CoulSu:  requested number of processors reduced to:   8 ShMem   1 Linda.
 CoulSu:  requested number of processors reduced to:   8 ShMem   1 Linda.
 Error on total polarization charges =  0.02481
 SCF Done:  E(RwB97XD) =  -5421.47012575     A.U. after   13 cycles
            NFock= 13  Conv=0.87D-08     -V/T= 2.0041
 PrsmSu:  requested number of processors reduced to:  11 ShMem   1 Linda.
 D1PCM: PCM CHGder 1st derivatives, ID1Alg=3 FixD1E=F DoIter=F DoCFld=F I1PDM=0.
 CoulSu:  requested number of processors reduced to:   9 ShMem   1 Linda.
 CoulSu:  requested number of processors reduced to:  10 ShMem   1 Linda.
 Calling FoFJK, ICntrl=      2127 FMM=T ISym2X=0 I1Cent= 0 IOpClX= 0 NMat=1 NMatS=1 NMatT=0.
 ***** Axes restored to original set *****
 -------------------------------------------------------------------
 Center     Atomic                   Forces (Hartrees/Bohr)
 Number     Number              X              Y              Z
 -------------------------------------------------------------------
      1       25           0.000486310    0.000206212   -0.000159847
      2        6          -0.000221671    0.000570090   -0.000135059
      3        8          -0.000002581   -0.000128056    0.000108875
      4        6          -0.000550382   -0.000025261    0.000831062
      5        8           0.000307208    0.000243849   -0.000115828
      6        6           0.000494043   -0.001717049    0.000177331
      7        7          -0.000002004    0.001051525    0.000366336
      8        6           0.000104596    0.000103034    0.000228364
      9        6          -0.000141364   -0.000098012   -0.000127344
     10        6          -0.000179595   -0.000844624   -0.000547812
     11        1           0.000143918    0.000077240   -0.000015185
     12        1           0.000034362    0.000096822   -0.000062038
     13        7           0.000156737   -0.000381030   -0.002873381
     14        6          -0.000012846    0.000326342    0.000751817
     15        6           0.000004228   -0.000593915    0.000121005
     16        6           0.000064488   -0.000074435   -0.000290538
     17        6          -0.000073572    0.000069734    0.000026251
     18        6          -0.000202520   -0.000026246    0.000119892
     19        1          -0.000112403   -0.000014841    0.000134917
     20        1          -0.000249683   -0.000192659   -0.001335048
     21        7          -0.000205278   -0.000393337    0.000403982
     22        6          -0.000045144    0.000082916   -0.000286704
     23        6           0.000172456    0.000116037   -0.000394473
[...]
   D52       -3.07859   0.00012   0.00000  -0.00241  -0.00245  -3.08104
   D53       -3.07102  -0.00003   0.00000  -0.00130  -0.00133  -3.07235
   D54        0.06517   0.00002   0.00000  -0.00294  -0.00298   0.06219
   D55        1.80918  -0.00031   0.00000   0.01756   0.01754   1.82672
   D56       -0.64391  -0.00010   0.00000  -0.03503  -0.03501  -0.67892
   D57        2.43437   0.00002   0.00000  -0.03003  -0.02995   2.40442
   D58        0.02653  -0.00004   0.00000  -0.01292  -0.01304   0.01349
   D59        3.10997   0.00017   0.00000   0.00333   0.00330   3.11327
   D60       -0.01657  -0.00006   0.00000   0.00389   0.00385  -0.01272
   D61        0.00536   0.00008   0.00000  -0.00041  -0.00041   0.00495
   D62       -3.12119  -0.00014   0.00000   0.00016   0.00015  -3.12104
   D63        0.05663  -0.00047   0.00000  -0.00465  -0.00467   0.05196
   D64       -3.10893  -0.00016   0.00000  -0.00302  -0.00301  -3.11194
   D65       -3.12190  -0.00039   0.00000  -0.00106  -0.00110  -3.12300
   D66       -0.00427  -0.00008   0.00000   0.00056   0.00057  -0.00371
   D67        3.14102  -0.00007   0.00000   0.00013   0.00013   3.14115
   D68       -0.00319  -0.00002   0.00000   0.00064   0.00064  -0.00255
   D69       -0.01573   0.00015   0.00000  -0.00048  -0.00047  -0.01620
   D70        3.12324   0.00020   0.00000   0.00003   0.00005   3.12329
   D71       -1.06962   0.00009   0.00000  -0.01589  -0.01594  -1.08557
   D72        2.08732  -0.00014   0.00000  -0.01530  -0.01536   2.07196
   D73        0.00003  -0.00003   0.00000  -0.00104  -0.00104  -0.00101
   D74        3.14068   0.00003   0.00000  -0.00036  -0.00036   3.14031
   D75        3.13899   0.00002   0.00000  -0.00053  -0.00053   3.13846
   D76       -0.00355   0.00007   0.00000   0.00015   0.00015  -0.00339
   D77       -1.11723   0.00063   0.00000  -0.01696  -0.01660  -1.13383
   D78        0.95803  -0.00025   0.00000  -0.00251  -0.00277   0.95526
   D79        2.04901   0.00031   0.00000  -0.01863  -0.01831   2.03071
   D80       -2.15891  -0.00057   0.00000  -0.00418  -0.00448  -2.16339
   D81        0.00101   0.00003   0.00000  -0.00094  -0.00095   0.00006
   D82       -3.13581  -0.00007   0.00000  -0.00066  -0.00067  -3.13648
   D83        3.11796   0.00036   0.00000   0.00075   0.00079   3.11875
   D84       -0.01886   0.00026   0.00000   0.00104   0.00107  -0.01779
   D85        1.63643  -0.00062   0.00000  -0.03305  -0.03285   1.60357
   D86        3.00928  -0.00001   0.00000  -0.00677  -0.00673   3.00255
   D87       -0.13291   0.00001   0.00000  -0.00674  -0.00673  -0.13964
   D88       -0.05445   0.00004   0.00000  -0.00090  -0.00085  -0.05529
   D89        3.08655   0.00006   0.00000  -0.00087  -0.00085   3.08570
   D90       -2.96022   0.00007   0.00000   0.00713   0.00710  -2.95311
   D91        0.18140  -0.00006   0.00000   0.00583   0.00580   0.18720
   D92        0.10163   0.00002   0.00000   0.00105   0.00102   0.10265
   D93       -3.03994  -0.00011   0.00000  -0.00025  -0.00028  -3.04023
   D94       -3.11879  -0.00019   0.00000  -0.00120  -0.00124  -3.12004
   D95        0.02590  -0.00005   0.00000  -0.00055  -0.00053   0.02537
   D96        0.04790  -0.00005   0.00000  -0.00009  -0.00014   0.04777
   D97       -3.09059   0.00009   0.00000   0.00056   0.00058  -3.09001
   D98       -2.87286  -0.00003   0.00000   0.01754   0.01770  -2.85515
   D99        0.24366  -0.00018   0.00000   0.01645   0.01662   0.26028
   D100      -0.01842  -0.00002   0.00000   0.00046   0.00045  -0.01797
   D101       3.12378  -0.00005   0.00000   0.00043   0.00045   3.12424
   D102      -3.13558   0.00012   0.00000   0.00151   0.00150  -3.13409
   D103       0.00662   0.00010   0.00000   0.00148   0.00150   0.00812
   D104       3.13376   0.00019   0.00000   0.00131   0.00139   3.13515
   D105      -0.00599   0.00009   0.00000   0.00020   0.00026  -0.00573
   D106      -0.01092   0.00006   0.00000   0.00066   0.00068  -0.01023
   D107       3.13252  -0.00004   0.00000  -0.00045  -0.00044   3.13207
   D108      -2.97904  -0.00005   0.00000   0.00124   0.00122  -2.97783
   D109       0.14266  -0.00001   0.00000   0.00121   0.00120   0.14386
   D110      -3.11200  -0.00004   0.00000  -0.00016  -0.00017  -3.11217
   D111       0.00970   0.00000   0.00000  -0.00018  -0.00018   0.00952
   D112       0.15101  -0.00003   0.00000  -0.00224  -0.00224   0.14877
   D113      -3.01047   0.00001   0.00000  -0.00226  -0.00225  -3.01273
   D114      -0.14298   0.00004   0.00000  -0.00163  -0.00161  -0.14460
   D115       2.97914   0.00010   0.00000  -0.00238  -0.00234   2.97680
   D116      -0.01001   0.00002   0.00000  -0.00039  -0.00038  -0.01039
   D117       3.11211   0.00007   0.00000  -0.00114  -0.00111   3.11101
   D118       3.01015   0.00001   0.00000   0.00185   0.00184   3.01199
   D119      -0.15091   0.00007   0.00000   0.00109   0.00112  -0.14979
   D120       1.50525  -0.00003   0.00000  -0.01541  -0.01540   1.48984
   D121      -1.50883  -0.00005   0.00000  -0.01410  -0.01411  -1.52294
   D122       3.10732   0.00004   0.00000  -0.00212  -0.00210   3.10522
   D123      -0.04456   0.00003   0.00000  -0.00161  -0.00160  -0.04616
   D124      -0.01493  -0.00000   0.00000  -0.00042  -0.00042  -0.01535
   D125       3.11637  -0.00002   0.00000   0.00009   0.00008   3.11645
   D126      -3.07745   0.00002   0.00000  -0.00130  -0.00129  -3.07874
   D127       0.05386   0.00001   0.00000  -0.00079  -0.00079   0.05306
   D128       0.04425  -0.00001   0.00000   0.00117   0.00116   0.04541
   D129      -3.10792  -0.00003   0.00000   0.00157   0.00154  -3.10637
   D130      -3.11668   0.00004   0.00000  -0.00059  -0.00058  -3.11727
   D131       0.01434   0.00001   0.00000  -0.00019  -0.00020   0.01413
   D132      -0.05415   0.00001   0.00000   0.00035   0.00035  -0.05380
   D133       3.07687  -0.00002   0.00000   0.00074   0.00073   3.07760
   D134       0.86119   0.00007   0.00000  -0.00311  -0.00309   0.85810
   D135      -2.32864   0.00014   0.00000  -0.00302  -0.00301  -2.33165
   D136      -2.27468   0.00001   0.00000  -0.00138  -0.00135  -2.27603
   D137       0.81868   0.00008   0.00000  -0.00129  -0.00128   0.81740
   D138       3.07651   0.00003   0.00000  -0.00015  -0.00017   3.07634
   D139      -0.02128   0.00002   0.00000   0.00011   0.00009  -0.02119
   D140      -0.01737  -0.00004   0.00000  -0.00022  -0.00023  -0.01759
   D141      -3.11516  -0.00004   0.00000   0.00003   0.00004  -3.11512
   D142       0.09937  -0.00001   0.00000  -0.00034  -0.00031   0.09905
   D143      -3.02218  -0.00005   0.00000  -0.00033  -0.00031  -3.02249
   D144      -3.08979   0.00006   0.00000  -0.00029  -0.00028  -3.09007
   D145       0.07185   0.00002   0.00000  -0.00029  -0.00028   0.07157
   D146      -0.03426   0.00003   0.00000   0.00003   0.00003  -0.03422
   D147       3.14089   0.00002   0.00000   0.00053   0.00054   3.14142
   D148       3.06384   0.00003   0.00000  -0.00022  -0.00023   3.06361
   D149      -0.04420   0.00003   0.00000   0.00028   0.00027  -0.04393
   D150       0.02959  -0.00000   0.00000   0.00061   0.00061   0.03020
   D151      -3.10395  -0.00001   0.00000   0.00032   0.00032  -3.10363
   D152       3.13721   0.00000   0.00000   0.00010   0.00010   3.13731
   D153       0.00367  -0.00001   0.00000  -0.00018  -0.00019   0.00348
   D154      -3.12626  -0.00003   0.00000  -0.00055  -0.00056  -3.12682
   D155       0.02560  -0.00002   0.00000  -0.00104  -0.00105   0.02455
   D156       0.00743  -0.00002   0.00000  -0.00027  -0.00027   0.00715
   D157      -3.12390  -0.00001   0.00000  -0.00076  -0.00077  -3.12466
   D158      -0.04662  -0.00001   0.00000   0.00042   0.00042  -0.04620
   D159       3.07569   0.00003   0.00000   0.00042   0.00043   3.07612
   D160       3.08503  -0.00003   0.00000   0.00090   0.00089   3.08592
   D161      -0.07585   0.00001   0.00000   0.00090   0.00090  -0.07495
   D162       0.04722  -0.00002   0.00000   0.00047   0.00047   0.04769
   D163      -3.08415   0.00000   0.00000   0.00008   0.00009  -3.08406
   D164      -3.07550  -0.00007   0.00000   0.00122   0.00119  -3.07430
   D165       0.07632  -0.00005   0.00000   0.00083   0.00082   0.07714
   D166       3.08749  -0.00000   0.00000  -0.00011  -0.00014   3.08735
   D167      -0.09935   0.00008   0.00000   0.00104   0.00106  -0.09830
   D168      -0.07372   0.00005   0.00000  -0.00088  -0.00088  -0.07460
   D169       3.02262   0.00014   0.00000   0.00027   0.00032   3.02293
   D170       3.12734   0.00004   0.00000  -0.00037  -0.00034   3.12699
   D171      -0.00633   0.00002   0.00000   0.00001   0.00002  -0.00631
   D172      -0.02481   0.00001   0.00000   0.00002   0.00004  -0.02477
   D173       3.12470  -0.00000   0.00000   0.00041   0.00041   3.12511
   D174      -0.03029   0.00003   0.00000  -0.00078  -0.00078  -0.03107
   D175      -3.13799   0.00001   0.00000  -0.00015  -0.00016  -3.13815
   D176       3.10323   0.00005   0.00000  -0.00116  -0.00115   3.10208
   D177      -0.00447   0.00003   0.00000  -0.00053  -0.00053  -0.00500
   D178       0.03351  -0.00003   0.00000   0.00074   0.00072   0.03423
   D179      -3.06576  -0.00003   0.00000   0.00084   0.00083  -3.06493
   D180      -3.14156  -0.00001   0.00000   0.00012   0.00011  -3.14146
   D181       0.04236  -0.00001   0.00000   0.00022   0.00022   0.04257
   D182       0.01940  -0.00001   0.00000   0.00008   0.00010   0.01949
   D183      -3.07672  -0.00010   0.00000  -0.00109  -0.00111  -3.07783
   D184       3.11837  -0.00001   0.00000  -0.00002  -0.00001   3.11836
   D185       0.02225  -0.00010   0.00000  -0.00119  -0.00122   0.02103
   D186       2.32037  -0.00016   0.00000  -0.00471  -0.00482   2.31555
   D187      -0.82312  -0.00006   0.00000  -0.00357  -0.00366  -0.82678
   D188      -0.86714  -0.00007   0.00000  -0.00357  -0.00364  -0.87078
   D189       2.27256   0.00003   0.00000  -0.00243  -0.00248   2.27008
   D190      -0.07206  -0.00008   0.00000  -0.00071  -0.00073  -0.07279
   D191       3.06951   0.00005   0.00000   0.00062   0.00060   3.07011
   D192       3.07133  -0.00017   0.00000  -0.00179  -0.00183   3.06950
   D193      -0.07029  -0.00005   0.00000  -0.00046  -0.00050  -0.07079
   D194       0.00108   0.00002   0.00000   0.00120   0.00120   0.00228
   D195       3.13788   0.00012   0.00000   0.00091   0.00092   3.13880
   D196      -3.13956  -0.00003   0.00000   0.00052   0.00052  -3.13905
   D197      -0.00277   0.00007   0.00000   0.00023   0.00024  -0.00253
         Item               Value     Threshold  Converged?
 Maximum Force            0.001687     0.000450     NO 
 RMS     Force            0.000209     0.000300     YES
 Maximum Displacement     0.192692     0.001800     NO 
 RMS     Displacement     0.036692     0.001200     NO 
 Predicted change in Energy= 1.077199D-04
 GradGradGradGradGradGradGradGradGradGradGradGradGradGradGradGradGradGrad

 Stoichiometry    C34H21BrMnN3O3
 Framework group  C1[X(C34H21BrMnN3O3)]
 Deg. of freedom   183
 Full point group                 C1      NOp   1
 Largest Abelian subgroup         C1      NOp   1
 Largest concise Abelian subgroup C1      NOp   1
                         Standard orientation:                         
 ---------------------------------------------------------------------
 Center     Atomic      Atomic             Coordinates (Angstroms)
 Number     Number       Type             X           Y           Z
 ---------------------------------------------------------------------
      1         25           0        1.096793    0.288240   -1.448487
      2          6           0        2.073315   -0.864111   -2.494559
      3          8           0        2.649308   -1.597674   -3.151352
      4          6           0        2.027069    1.743303   -2.071507
      5          8           0        2.577531    2.660962   -2.466028
      6          6           0       -0.116780    0.490256   -2.791379
      7          7           0        0.010379    1.616968   -0.120687
      8          6           0        0.027327    3.077218    1.780893
      9          6           0       -1.363946    3.082324    1.821767
     10          6           0       -1.323308    1.697458   -0.122002
     11          1           0        0.619967    3.635585    2.506807
     12          1           0       -1.896302    3.625694    2.605218
     13          7           0        2.337237    0.046078    0.116217
     14          6           0        2.966827   -0.134107    1.064879
     15          6           0        3.691521   -0.404018    2.267113
     16          6           0        3.217935    0.113309    3.482762
     17          6           0        3.908173   -0.181091    4.653001
     18          6           0        4.836987   -1.211273    2.215619
     19          1           0        2.312663    0.724119    3.502021
     20          1           0        5.184323   -1.580297    1.250091
     21          7           0        0.056972   -1.443560   -0.637557
     22          6           0        0.123308   -3.432209    0.700202
     23          6           0       -1.266538   -3.497545    0.720404
     24          1           0        0.740357   -4.164053    1.222446
     25          6           0        0.672506    2.329972    0.806518
     26          1           0        1.760942    2.303342    0.766930
     27          6           0        0.741842   -2.391495    0.023607
     28          1           0        1.828262   -2.317083    0.012009
     29          1           0        3.552561    0.214131    5.605854
     30          8           0       -0.866575    0.622686   -3.645772
     31          6           0       -3.589866   -0.131440    0.572132
     32          6           0       -6.340155   -0.099538    0.154889
     33          6           0       -2.073735    2.380455    0.844444
     34          6           0       -3.559923    2.348861    0.800380
     35          6           0       -4.284518    3.511498    0.885441
     36          6           0       -5.704819    3.511622    0.766382
     37          6           0       -6.382156    2.351043    0.523374
     38          6           0       -5.680024    1.106923    0.420478
     39          6           0       -4.256623    1.095683    0.607278
     40          1           0       -3.764393    4.464639    1.006278
     41          1           0       -6.242866    4.458477    0.840187
     42          1           0       -7.467173    2.354961    0.396796
     43          6           0       -4.222233   -1.319306    0.198279
     44          6           0       -5.646180   -1.307859    0.012392
     45          6           0       -6.311423   -2.536711   -0.300949
     46          6           0       -5.599298   -3.692605   -0.448939
     47          6           0       -4.178619   -3.691719   -0.331966
     48          6           0       -3.487586   -2.545310   -0.029420
     49          1           0       -7.396495   -2.530624   -0.426908
     50          1           0       -6.110257   -4.626342   -0.690960
     51          1           0       -3.631557   -4.617036   -0.526957
     52          6           0       -2.000189   -2.544357    0.009363
     53          1           0       -1.780670   -4.278180    1.285066
     54          6           0       -1.273709   -1.565959   -0.682314
     55          1           0       -1.810674   -0.847927   -1.301654
     56          1           0       -1.843360    1.194134   -0.936326
     57          6           0        5.051577   -0.982373    4.608270
     58          6           0        5.514430   -1.497077    3.395833
     59          1           0        6.409696   -2.119954    3.368829
     60          1           0        5.588825   -1.208060    5.531600
     61         35           0        5.932196    0.413635   -1.612889
     62          1           0       -7.426707   -0.091560    0.036736
     63          1           0       -2.535181   -0.160316    0.832634
 ---------------------------------------------------------------------
 Rotational constants (GHZ):           0.1103857           0.0425085           0.0419133
 Basis read from rwf:  (5D, 7F)
 There are   802 symmetry adapted cartesian basis functions of A   symmetry.
 There are   751 symmetry adapted basis functions of A   symmetry.
   751 basis functions,  1339 primitive gaussians,   802 cartesian basis functions
   165 alpha electrons      165 beta electrons
       nuclear repulsion energy      5826.9943851900 Hartrees.
 NAtoms=   63 NActive=   63 NUniq=   63 SFac= 1.00D+00 NAtFMM=   60 NAOKFM=T Big=T
 Integral buffers will be    131072 words long.
 Raffenetti 2 integral format.
 Two-electron integral symmetry is turned on.
 Nuclear repulsion after empirical dispersion term =     5826.9306618164 Hartrees.
 ------------------------------------------------------------------------------
 Polarizable Continuum Model (PCM)
 =================================
 Model                : PCM.
 Atomic radii         : UFF (Universal Force Field).
 Polarization charges : Total charges.
 Charge compensation  : None.
 Solution method      : On-the-fly selection.
 Cavity type          : Scaled VdW (van der Waals Surface) (Alpha=1.100).
 Cavity algorithm     : GePol (No added spheres)
                        Default sphere list used, NSphG=   63.
                        Lebedev-Laikov grids with approx.  5.0 points / Ang**2.
                        Smoothing algorithm: York/Karplus (Gamma=1.0000).
                        Polarization charges: spherical gaussians, with
                                              point-specific exponents (IZeta= 3).
                        Self-potential: point-specific (ISelfS= 7).
                        Self-field    : sphere-specific E.n sum rule (ISelfD= 2).
 1st derivatives      : Analytical E(r).r(x)/FMM algorithm (CHGder, D1EAlg=3).
                        Cavity 1st derivative terms included.
 Solvent              : TetraHydroFuran, Eps=   7.425700 Eps(inf)=   1.974025
 ------------------------------------------------------------------------------
 One-electron integrals computed using PRISM.
 PrsmSu:  requested number of processors reduced to:  11 ShMem   1 Linda.
 NBasis=   751 RedAO= T EigKep=  2.24D-04  NBF=   751
 NBsUse=   751 1.00D-06 EigRej= -1.00D+00 NBFU=   751
 Initial guess from the checkpoint file:  "checkpoint.chk"
 B after Tr=    -0.000000    0.000000    0.000000
         Rot=    0.999913   -0.013075    0.001531    0.001192 Ang=  -1.51 deg.
 ExpMin= 3.93D-02 ExpMax= 2.77D+05 ExpMxC= 1.70D+04 IAcc=3 IRadAn=         5 AccDes= 0.00D+00
 Harris functional with IExCor= 4639 and IRadAn=       5 diagonalized for initial guess.
 HarFok:  IExCor= 4639 AccDes= 0.00D+00 IRadAn=         5 IDoV= 1 UseB2=F ITyADJ=14
 ICtDFT=  3500011 ScaDFX=  1.000000  1.000000  1.000000  1.000000
 FoFCou: FMM=F IPFlag=           0 FMFlag=      100000 FMFlg1=        2001
         NFxFlg=           0 DoJE=T BraDBF=F KetDBF=T FulRan=T
         wScrn=  0.000000 ICntrl=       500 IOpCl=  0 I1Cent=   200000004 NGrid=           0
         NMat0=    1 NMatS0=      1 NMatT0=    0 NMatD0=    1 NMtDS0=    0 NMtDT0=    0
 Petite list used in FoFCou.
 Requested convergence on RMS density matrix=1.00D-08 within 128 cycles.
 Requested convergence on MAX density matrix=1.00D-06.
 Requested convergence on             energy=1.00D-06.
 No special actions if energy rises.
 CoulSu:  requested number of processors reduced to:   8 ShMem   1 Linda.
 Inv3:  Mode=1 IEnd=    72648723.
 Iteration    1 A*A^-1 deviation from unit magnitude is 3.11D-15 for    561.
 Iteration    1 A*A^-1 deviation from orthogonality  is 2.44D-15 for   2842   2398.
 Iteration    1 A^-1*A deviation from unit magnitude is 3.55D-15 for    919.
 Iteration    1 A^-1*A deviation from orthogonality  is 2.66D-15 for   2665   1802.
 CoulSu:  requested number of processors reduced to:   8 ShMem   1 Linda.
 CoulSu:  requested number of processors reduced to:   8 ShMem   1 Linda.
