 Entering Gaussian System, Link 0=g16
 Initial command:
 /home1/apps/gaussian/16rA.03/g16/l1.exe "/tmp/Gau-176176.inp" -scrdir="/tmp/"
 Entering Link 1 = /home1/apps/gaussian/16rA.03/g16/l1.exe PID=    176178.
  
 Copyright (c) 1988,1990,1992,1993,1995,1998,2003,2009,2016,
            Gaussian, Inc.  All Rights Reserved.
  
 This is part of the Gaussian(R) 16 program.  It is based on
 the Gaussian(R) 09 system (copyright 2009, Gaussian, Inc.),
 the Gaussian(R) 03 system (copyright 2003, Gaussian, Inc.),
 the Gaussian(R) 98 system (copyright 1998, Gaussian, Inc.),
 the Gaussian(R) 94 system (copyright 1995, Gaussian, Inc.),
 the Gaussian 92(TM) system (copyright 1992, Gaussian, Inc.),
 the Gaussian 90(TM) system (copyright 1990, Gaussian, Inc.),
 the Gaussian 88(TM) system (copyright 1988, Gaussian, Inc.),
 the Gaussian 86(TM) system (copyright 1986, Carnegie Mellon
 University), and the Gaussian 82(TM) system (copyright 1983,
 Carnegie Mellon University). Gaussian is a federally registered
 trademark of Gaussian, Inc.
  
 This software contains proprietary and confidential information,
 including trade secrets, belonging to Gaussian, Inc.
  
 This software is provided under written license and may be
 used, copied, transmitted, or stored only in accord with that
 written license.
  
 The following legend is applicable only to US Government
 contracts under FAR:
  
                    RESTRICTED RIGHTS LEGEND
  
 Use, reproduction and disclosure by the US Government is
 subject to restrictions as set forth in subparagraphs (a)
 and (c) of the Commercial Computer Software - Restricted
 Rights clause in FAR 52.227-19.
  
 Gaussian, Inc.
 340 Quinnipiac St., Bldg. 40, Wallingford CT 06492
  
  
 ---------------------------------------------------------------
 Warning -- This program may not be used in any manner that
 competes with the business of Gaussian, Inc. or will provide
 assistance to any competitor of Gaussian, Inc.  The licensee
 of this program is prohibited from giving any competitor of
 Gaussian, Inc. access to this program.  By using this program,
 the user acknowledges that Gaussian, Inc. is engaged in the
 business of creating and licensing software in the field of
 computational chemistry and represents and warrants to the
 licensee that it is not a competitor of Gaussian, Inc. and that
 it will not use this program in any manner prohibited above.
 ---------------------------------------------------------------
  

 Cite this work as:
 Gaussian 16, Revision A.03,
 M. J. Frisch, G. W. Trucks, H. B. Schlegel, G. E. Scuseria, 
 M. A. Robb, J. R. Cheeseman, G. Scalmani, V. Barone, 
 G. A. Petersson, H. Nakatsuji, X. Li, M. Caricato, A. V. Marenich, 
 J. Bloino, B. G. Janesko, R. Gomperts, B. Mennucci, H. P. Hratchian, 
 J. V. Ortiz, A. F. Izmaylov, J. L. Sonnenberg, D. Williams-Young, 
 F. Ding, F. Lipparini, F. Egidi, J. Goings, B. Peng, A. Petrone, 
 T. Henderson, D. Ranasinghe, V. G. Zakrzewski, J. Gao, N. Rega, 
 G. Zheng, W. Liang, M. Hada, M. Ehara, K. Toyota, R. Fukuda, 
 J. Hasegawa, M. Ishida, T. Nakajima, Y. Honda, O. Kitao, H. Nakai, 
 T. Vreven, K. Throssell, J. A. Montgomery, Jr., J. E. Peralta, 
 F. Ogliaro, M. J. Bearpark, J. J. Heyd, E. N. Brothers, K. N. Kudin, 
 V. N. Staroverov, T. A. Keith, R. Kobayashi, J. Normand, 
 K. Raghavachari, A. P. Rendell, J. C. Burant, S. S. Iyengar, 
 J. Tomasi, M. Cossi, J. M. Millam, M. Klene, C. Adamo, R. Cammi, 
 J. W. Ochterski, R. L. Martin, K. Morokuma, O. Farkas, 
 J. B. Foresman, and D. J. Fox, Gaussian, Inc., Wallingford CT, 2016.
 
 ******************************************
 Gaussian 16:  ES64L-G16RevA.03 25-Dec-2016
                22-Oct-2022 
 ******************************************
 %Chk=checkpoint.chk
 %NProcShared=12
 Will use up to   12 processors via shared memory.
 ------------------------------------------------------
 # wB97XD Gen Opt=(QST2) SCRF=(Solvent=TetraHydroFuran)
 ------------------------------------------------------
 1/5=1,18=20,26=3,27=202,38=1/1,3;
 2/9=110,12=2,17=6,18=5,40=1/2;
 3/5=7,11=2,25=1,30=1,70=2201,71=1,72=20,74=-58/1,2,3;
 4//1;
 5/5=2,38=5,53=20/2;
 6/7=2,8=2,9=2,10=2,28=1/1;
 7//1,2,3,16;
 1/5=1,18=20,26=3,27=202/3(2);
 2/9=110/2;
 99//99;
 2/9=110/2;
 3/5=7,6=1,11=2,25=1,30=1,70=2205,71=1,72=20,74=-58,82=7/1,2,3;
 4/5=5,16=3,69=1/1;
 5/5=2,38=5,53=20/2;
 7//1,2,3,16;
 1/5=1,18=20,26=3,27=202/3(-5);
 2/9=110/2;
 6/7=2,8=2,9=2,10=2,19=2,28=1/1;
 99/9=1/99;
 ----------------------------
 Mn Transition State Reactant
 ----------------------------
 Symbolic Z-matrix:
 Charge =  0 Multiplicity = 1
 Mn                    0.        0.        0. 
 C                    -0.09679   1.8323    0.02295 
 C                     0.        0.       -1.82342 
 C                     1.83282   0.       -0.02938 
 Br                    1.73205   1.73205   1.73205 
 N                    -0.04922  -2.15482   0.09332 
 N                    -2.15153  -0.14036   0.09515 
 C                     0.52385  -2.93988  -0.8355 
 C                     0.57609  -4.32182  -0.71618 
 C                     0.03787  -4.93262   0.41495 
 C                    -0.56724  -4.13205   1.38331 
 C                    -0.59422  -2.75751   1.15179 
 C                    -2.76019  -0.33999   1.26803 
 C                    -4.08404  -0.75052   1.40528 
 C                    -2.90821  -0.24504  -1.01025 
 C                    -4.25761  -0.57119  -0.97276 
 C                    -4.8572   -0.85573   0.2508 
 C                    -4.54612  -1.14763   2.76568 
 C                    -1.06072  -4.64508   2.69242 
 C                    -2.36035  -4.39435   3.17469 
 C                    -4.2951   -2.45577   3.22064 
 C                    -2.7088   -4.77698   4.4776 
 C                    -4.6235   -2.81682   4.53378 
 C                    -5.16246  -0.23395   3.6234 
 C                    -0.16193  -5.33835   3.51187 
 C                    -0.5204   -5.73496   4.79711 
 C                    -5.49479  -0.60032   4.92642 
 C                    -5.20842  -1.88092   5.39075 
 C                    -1.78362  -5.43139   5.29359 
 S                    -3.59561  -3.66717   2.11779 
 S                    -4.34059  -4.47249   5.11215 
 H                     1.05087  -4.91025  -1.50139 
 H                     0.08951  -6.01597   0.54182 
 H                    -1.07315  -2.12266   1.89001 
 H                    -2.16282  -0.19695   2.1652 
 H                    -2.4226   -0.06909  -1.96947 
 H                    -4.81913  -0.6322   -1.90505 
 H                    -5.90099  -1.1706    0.30616 
 H                    -5.36522   0.7782    3.26819 
 H                     0.84657  -5.53732   3.14359 
 H                     0.19986  -6.26023   5.42631 
 H                    -5.96589   0.12432   5.59251 
 H                    -5.4428   -2.16193   6.41931 
 H                    -2.05931  -5.70427   6.31399 
 O                     0.06255   0.01915  -2.96537 
 O                     2.97377  -0.00521  -0.04518 
 O                    -0.17883   2.9698    0.0391 
 H                     0.9665   -2.44597  -1.70172 
 N                     0.1205   -0.06435   2.03055 
 C                     0.1757   -0.32041   3.1556 
 C                     0.0988   -0.78664   4.50696 
 C                     1.18058  -0.65782   5.389 
 C                    -1.08395  -1.43608   4.90265 
 C                     1.07101  -1.1882    6.67028 
 H                     2.09302  -0.15307   5.06933 
 C                    -1.1749   -1.96428   6.18414 
 H                    -1.92637  -1.52866   4.21411 
 C                    -0.09853  -1.84109   7.06447 
 H                     1.90634  -1.09472   7.36578 
 H                    -2.08869  -2.47607   6.49182 
 H                    -0.17211  -2.25847   8.07044 
 
 Add virtual bond connecting atoms C2         and Br5        Dist= 4.73D+00.
 Add virtual bond connecting atoms C4         and Br5        Dist= 4.67D+00.
 Add virtual bond connecting atoms N49        and Br5        Dist= 4.60D+00.
 ---------------------------
 Mn Transition State Product
 ---------------------------
 Symbolic Z-matrix:
 Charge =  0 Multiplicity = 1
 Mn                    0.        0.        0. 
 C                    -0.08831   1.81915   0.02694 
 C                     0.        0.       -1.79318 
 C                     1.82129   0.        0.02701 
 Br                    0.21406   0.22525   2.60296 
 N                    -0.00198  -2.15626   0.10267 
 N                    -2.15359  -0.10666   0.10261 
 C                     0.38734  -2.90055  -0.94769 
 C                     0.33894  -4.28645  -0.94857 
 C                    -0.15783  -4.94905   0.17197 
 C                    -0.57167  -4.19114   1.26468 
 C                    -0.44573  -2.80197   1.18369 
 C                    -2.77703  -0.58203   1.18326 
 C                    -4.15855  -0.77451   1.26439 
 C                    -2.91591   0.24739  -0.9473 
 C                    -4.29788   0.13244  -0.94805 
 C                    -4.93564  -0.39652   0.17216 
 C                    -4.73565  -1.36773   2.50277 
 C                    -1.13591  -4.79615   2.50328 
 C                    -2.48294  -4.59586   2.85783 
 C                    -4.47     -2.70335   2.85753 
 C                    -2.9782   -5.11928   4.05963 
 C                    -4.96894  -3.2234    4.05928 
 C                    -5.54655  -0.59398   3.33896 
 C                    -0.32361  -5.56806   3.33979 
 C                    -0.82204  -6.0942    4.52932 
 C                    -6.04809  -1.11734   4.52841 
 C                    -5.74193  -2.42245   4.90321 
 C                    -2.14059  -5.85203   4.90386 
 S                    -3.58496  -3.76369   1.73597 
 S                    -4.6875   -4.9209    4.50034 
 H                     0.67663  -4.83606  -1.82736 
 H                    -0.23113  -6.03846   0.19274 
 H                    -0.69729  -2.18819   2.04804 
 H                    -2.15175  -0.80469   2.04727 
 H                    -2.4021    0.64317  -1.82367 
 H                    -4.86325   0.44411  -1.82647 
 H                    -6.02029  -0.52198   0.19305 
 H                    -5.76345   0.43908   3.05961 
 H                     0.71885  -5.73439   3.0606 
 H                    -0.17222  -6.6814    5.18043 
 H                    -6.66649  -0.49688   5.17925 
 H                    -6.10842  -2.82852   5.84804 
 H                    -2.52842  -6.23768   5.84873 
 O                     0.04791   0.05036  -2.9414 
 O                     2.96474  -0.00968   0.05082 
 O                    -0.15349   2.9608    0.05043 
 H                     0.75715  -2.36822  -1.82434 
 N                    -1.20605  -1.20605   3.61814 
 C                    -0.62713  -0.62713   4.43685 
 C                     0.09292   0.09213   5.45451 
 C                     1.30189  -0.42073   5.9472 
 C                    -0.41989   1.30147   5.94712 
 C                     1.99262   0.28009   6.93133 
 H                     1.69292  -1.36215   5.5581 
 C                     0.2808    1.99208   6.93116 
 H                    -1.36122   1.69229   5.55759 
 C                     1.48403   1.4833    7.42237 
 H                     2.9337   -0.1159    7.317 
 H                    -0.11496   2.93324   7.31688 
 H                     2.02989   2.02913   8.1946 
 
 Iteration  1 RMS(Cart)=  0.22210983 RMS(Int)=  0.67365939
 Iteration  2 RMS(Cart)=  0.12652056 RMS(Int)=  0.66535740
 Iteration  3 RMS(Cart)=  0.16627772 RMS(Int)=  0.66286370
 Iteration  4 RMS(Cart)=  0.13844619 RMS(Int)=  0.66231030
 Iteration  5 RMS(Cart)=  0.10842007 RMS(Int)=  0.65949578
 Iteration  6 RMS(Cart)=  0.04394811 RMS(Int)=  0.65741925
 Iteration  7 RMS(Cart)=  0.00599707 RMS(Int)=  0.65586341
 Iteration  8 RMS(Cart)=  0.00374946 RMS(Int)=  0.65471696
 Iteration  9 RMS(Cart)=  0.00286991 RMS(Int)=  0.65374078
 Iteration 10 RMS(Cart)=  0.01977845 RMS(Int)=  0.65042072
 Iteration 11 RMS(Cart)=  0.01267194 RMS(Int)=  0.64756234
 Iteration 12 RMS(Cart)=  0.00863429 RMS(Int)=  0.64473052
 Iteration 13 RMS(Cart)=  0.00780187 RMS(Int)=  0.64200567
 Iteration 14 RMS(Cart)=  0.00762348 RMS(Int)=  0.63943494
 Iteration 15 RMS(Cart)=  0.00749359 RMS(Int)=  0.63704856
 Iteration 16 RMS(Cart)=  0.00729730 RMS(Int)=  0.63486298
 Iteration 17 RMS(Cart)=  0.00702010 RMS(Int)=  0.63288540
 Iteration 18 RMS(Cart)=  0.00666962 RMS(Int)=  0.63111603
 Iteration 19 RMS(Cart)=  0.00625954 RMS(Int)=  0.62954935
 Iteration 20 RMS(Cart)=  0.00580590 RMS(Int)=  0.62817521
 Iteration 21 RMS(Cart)=  0.00532545 RMS(Int)=  0.62698004
 Iteration 22 RMS(Cart)=  0.00484505 RMS(Int)=  0.62594522
 Iteration 23 RMS(Cart)=  0.00444288 RMS(Int)=  0.62503406
 Iteration 24 RMS(Cart)=  0.00419115 RMS(Int)=  0.62420692
 Iteration 25 RMS(Cart)=  0.00402778 RMS(Int)=  0.62344161
 Iteration 26 RMS(Cart)=  0.00386473 RMS(Int)=  0.62273160
 Iteration 27 RMS(Cart)=  0.00372556 RMS(Int)=  0.62207021
 Iteration 28 RMS(Cart)=  0.00361229 RMS(Int)=  0.62145150
 Iteration 29 RMS(Cart)=  0.00351929 RMS(Int)=  0.62087049
 Iteration 30 RMS(Cart)=  0.00343964 RMS(Int)=  0.62032204
 Iteration 31 RMS(Cart)=  0.00337043 RMS(Int)=  0.61980152
 Iteration 32 RMS(Cart)=  0.00330910 RMS(Int)=  0.61930589
 Iteration 33 RMS(Cart)=  0.00325236 RMS(Int)=  0.61883291
 Iteration 34 RMS(Cart)=  0.00319902 RMS(Int)=  0.61838085
 Iteration 35 RMS(Cart)=  0.00314830 RMS(Int)=  0.61794832
 Iteration 36 RMS(Cart)=  0.00309969 RMS(Int)=  0.61753415
 Iteration 37 RMS(Cart)=  0.00305308 RMS(Int)=  0.61713732
 Iteration 38 RMS(Cart)=  0.00300829 RMS(Int)=  0.61675693
 Iteration 39 RMS(Cart)=  0.00296517 RMS(Int)=  0.61639217
 Iteration 40 RMS(Cart)=  0.00292360 RMS(Int)=  0.61604231
 Iteration 41 RMS(Cart)=  0.00288351 RMS(Int)=  0.61570666
 Iteration 42 RMS(Cart)=  0.00284482 RMS(Int)=  0.61538462
 Iteration 43 RMS(Cart)=  0.00280746 RMS(Int)=  0.61507561
 Iteration 44 RMS(Cart)=  0.00277136 RMS(Int)=  0.61477910
 Iteration 45 RMS(Cart)=  0.00273648 RMS(Int)=  0.61449459
 Iteration 46 RMS(Cart)=  0.00270276 RMS(Int)=  0.61422162
 Iteration 47 RMS(Cart)=  0.00267015 RMS(Int)=  0.61395974
 Iteration 48 RMS(Cart)=  0.00263862 RMS(Int)=  0.61370855
 Iteration 49 RMS(Cart)=  0.00260810 RMS(Int)=  0.61346767
 Iteration 50 RMS(Cart)=  0.00257856 RMS(Int)=  0.61323672
 Iteration 51 RMS(Cart)=  0.00254996 RMS(Int)=  0.61301536
 Iteration 52 RMS(Cart)=  0.00252227 RMS(Int)=  0.61280326
 Iteration 53 RMS(Cart)=  0.00249545 RMS(Int)=  0.61260013
 Iteration 54 RMS(Cart)=  0.00246945 RMS(Int)=  0.61240567
 Iteration 55 RMS(Cart)=  0.00244426 RMS(Int)=  0.61221959
 Iteration 56 RMS(Cart)=  0.00241984 RMS(Int)=  0.61204166
 Iteration 57 RMS(Cart)=  0.00239615 RMS(Int)=  0.61187160
 Iteration 58 RMS(Cart)=  0.00237318 RMS(Int)=  0.61170919
 Iteration 59 RMS(Cart)=  0.00235088 RMS(Int)=  0.61155421
 Iteration 60 RMS(Cart)=  0.00232925 RMS(Int)=  0.61140645
 Iteration 61 RMS(Cart)=  0.00230824 RMS(Int)=  0.61126569
 Iteration 62 RMS(Cart)=  0.00228785 RMS(Int)=  0.61113175
 Iteration 63 RMS(Cart)=  0.00226804 RMS(Int)=  0.61100444
 Iteration 64 RMS(Cart)=  0.00224880 RMS(Int)=  0.61088360
 Iteration 65 RMS(Cart)=  0.00223010 RMS(Int)=  0.61076905
 Iteration 66 RMS(Cart)=  0.00221192 RMS(Int)=  0.61066064
 Iteration 67 RMS(Cart)=  0.00219425 RMS(Int)=  0.61055821
 Iteration 68 RMS(Cart)=  0.00217707 RMS(Int)=  0.61046162
 Iteration 69 RMS(Cart)=  0.00216036 RMS(Int)=  0.61037073
 Iteration 70 RMS(Cart)=  0.00214411 RMS(Int)=  0.61028541
 Iteration 71 RMS(Cart)=  0.00212830 RMS(Int)=  0.61020554
 Iteration 72 RMS(Cart)=  0.00211291 RMS(Int)=  0.61013098
 Iteration 73 RMS(Cart)=  0.00209793 RMS(Int)=  0.61006164
 Iteration 74 RMS(Cart)=  0.00208335 RMS(Int)=  0.60999739
 Iteration 75 RMS(Cart)=  0.00206915 RMS(Int)=  0.60993813
 Iteration 76 RMS(Cart)=  0.00205533 RMS(Int)=  0.60988376
 Iteration 77 RMS(Cart)=  0.00204186 RMS(Int)=  0.60983419
 Iteration 78 RMS(Cart)=  0.00202875 RMS(Int)=  0.60978931
 Iteration 79 RMS(Cart)=  0.00201596 RMS(Int)=  0.60974904
 Iteration 80 RMS(Cart)=  0.00200351 RMS(Int)=  0.60971330
 Iteration 81 RMS(Cart)=  0.00199137 RMS(Int)=  0.60968201
 Iteration 82 RMS(Cart)=  0.00197954 RMS(Int)=  0.60965507
 Iteration 83 RMS(Cart)=  0.00196801 RMS(Int)=  0.60963243
 Iteration 84 RMS(Cart)=  0.00195677 RMS(Int)=  0.60961400
 Iteration 85 RMS(Cart)=  0.00194580 RMS(Int)=  0.60959972
 Iteration 86 RMS(Cart)=  0.00193511 RMS(Int)=  0.60958953
 Iteration 87 RMS(Cart)=  0.00192468 RMS(Int)=  0.60958335
 Iteration 88 RMS(Cart)=  0.00191450 RMS(Int)=  0.60958112
 Iteration 89 RMS(Cart)=  0.00190457 RMS(Int)=  0.60958280
 Iteration 90 RMS(Cart)=  0.00189488 RMS(Int)=  0.60958831
 Iteration 91 RMS(Cart)=  0.00188543 RMS(Int)=  0.60959761
 Iteration 92 RMS(Cart)=  0.00187620 RMS(Int)=  0.60961065
 Iteration 93 RMS(Cart)=  0.00186719 RMS(Int)=  0.60962737
 Iteration 94 RMS(Cart)=  0.00185839 RMS(Int)=  0.60964772
 Iteration 95 RMS(Cart)=  0.00184980 RMS(Int)=  0.60967167
 Iteration 96 RMS(Cart)=  0.00184141 RMS(Int)=  0.60969916
 Iteration 97 RMS(Cart)=  0.00183322 RMS(Int)=  0.60973015
 Iteration 98 RMS(Cart)=  0.00182521 RMS(Int)=  0.60976461
 Iteration 99 RMS(Cart)=  0.00181738 RMS(Int)=  0.60980249
 Iteration100 RMS(Cart)=  0.00180973 RMS(Int)=  0.60984375
 New curvilinear step not converged.
 FormGI is forming the generalized inverse of G from B-inverse, IUseBI=4.
 RedQX1 iteration     1 Try  1 RMS(Cart)=  0.33269757 RMS(Int)=  0.64934401 XScale=  8.39789450
 RedQX1 iteration     1 Try  2 RMS(Cart)=  0.33779270 RMS(Int)=  0.61609565 XScale=  4.21334139
 RedQX1 iteration     1 Try  3 RMS(Cart)=  0.36714815 RMS(Int)=  0.59674875 XScale=  2.78580274
 RedQX1 iteration     1 Try  4 RMS(Cart)=  0.45549527 RMS(Int)=  0.59146189 XScale=  2.02309926
 RedQX1 iteration     1 Try  5 RMS(Cart)=  0.75099525 RMS(Int)=  0.60572720 XScale=  1.46846988
 RedQX1 iteration     1 Try  6 RMS(Cart)=  0.59436927 RMS(Int)=  0.60926023 XScale=  1.26739872
 RedQX1 iteration     2 Try  1 RMS(Cart)=  0.10528097 RMS(Int)=  0.60774079 XScale=  1.24788049
 RedQX1 iteration     2 Try  2 RMS(Cart)=  0.12868037 RMS(Int)=  0.60335128 XScale=  1.22795425
 RedQX1 iteration     2 Try  3 RMS(Cart)=  0.21153535 RMS(Int)=  0.61074112 XScale=  1.19556055
 RedQX1 iteration     2 Try  4 RMS(Cart)=  0.32930641 RMS(Int)=  0.70221855 XScale=  1.13092751
 RedQX1 iteration     2 Try  5 RMS(Cart)=  1.37146157 RMS(Int)=  0.93573389 XScale=  0.85296123
 RedQX1 iteration     3 Try  1 RMS(Cart)=  0.27429231 RMS(Int)=  0.72680025 XScale=  1.07524660
 RedQX1 iteration     3 Try  2 RMS(Cart)=  0.36653704 RMS(Int)=  0.81422900 XScale=  1.02075213
 RedQX1 iteration     3 Try  3 RMS(Cart)=  0.57042677 RMS(Int)=  0.85652585 XScale=  0.87751721
 RedQX1 iteration     4 Try  1 RMS(Cart)=  0.34225606 RMS(Int)=  0.87774169 XScale=  0.91790627
 RedQX1 iteration     5 Try  1 RMS(Cart)=  0.06845121 RMS(Int)=  0.82447386 XScale=  1.00136962
 RedQX1 iteration     5 Try  2 RMS(Cart)=  0.07287847 RMS(Int)=  0.83640405 XScale=  0.98034813
 RedQX1 iteration     6 Try  1 RMS(Cart)=  0.06996333 RMS(Int)=  0.83589964 XScale=  0.98120497
 RedQX1 iteration     7 Try  1 RMS(Cart)=  0.01399267 RMS(Int)=  0.82665820 XScale=  0.99739826
 RedQX1 iteration     8 Try  1 RMS(Cart)=  0.00279853 RMS(Int)=  0.82490685 XScale=  1.00057782
 RedQX1 iteration     8 Try  2 RMS(Cart)=  0.00280554 RMS(Int)=  0.82534248 XScale=  0.99978347
 RedQX1 iteration     8 Try  3 RMS(Cart)=  0.00281259 RMS(Int)=  0.82578076 XScale=  0.99898657
 RedQX1 iteration     9 Try  1 RMS(Cart)=  0.00280359 RMS(Int)=  0.82577935 XScale=  0.99898912
 RedQX1 iteration    10 Try  1 RMS(Cart)=  0.00056072 RMS(Int)=  0.82542970 XScale=  0.99962470
 RedQX1 iteration    10 Try  2 RMS(Cart)=  0.00056100 RMS(Int)=  0.82551702 XScale=  0.99946583
 RedQX1 iteration    10 Try  3 RMS(Cart)=  0.00056128 RMS(Int)=  0.82560446 XScale=  0.99930685
 RedQX1 iteration    10 Try  4 RMS(Cart)=  0.00056156 RMS(Int)=  0.82569199 XScale=  0.99914777
 RedQX1 iteration    10 Try  5 RMS(Cart)=  0.00056184 RMS(Int)=  0.82577964 XScale=  0.99898859
 RedQX1 iteration    11 Try  1 RMS(Cart)=  0.00056112 RMS(Int)=  0.82577952 XScale=  0.99898880
 RedQX1 iteration    12 Try  1 RMS(Cart)=  0.00011222 RMS(Int)=  0.82570949 XScale=  0.99911598
 RedQX1 iteration    12 Try  2 RMS(Cart)=  0.00011224 RMS(Int)=  0.82572700 XScale=  0.99908419
 RedQX1 iteration    12 Try  3 RMS(Cart)=  0.00011225 RMS(Int)=  0.82574451 XScale=  0.99905239
 RedQX1 iteration    12 Try  4 RMS(Cart)=  0.00011226 RMS(Int)=  0.82576202 XScale=  0.99902058
 RedQX1 iteration    12 Try  5 RMS(Cart)=  0.00011227 RMS(Int)=  0.82577954 XScale=  0.99898878
 RedQX1 iteration    13 Try  1 RMS(Cart)=  0.00011224 RMS(Int)=  0.82577953 XScale=  0.99898878
 RedQX1 iteration    14 Try  1 RMS(Cart)=  0.00002245 RMS(Int)=  0.82576552 XScale=  0.99901422
 RedQX1 iteration    14 Try  2 RMS(Cart)=  0.00002245 RMS(Int)=  0.82576902 XScale=  0.99900786
 RedQX1 iteration    14 Try  3 RMS(Cart)=  0.00002245 RMS(Int)=  0.82577253 XScale=  0.99900150
 RedQX1 iteration    14 Try  4 RMS(Cart)=  0.00002245 RMS(Int)=  0.82577603 XScale=  0.99899514
 RedQX1 iteration    15 Try  1 RMS(Cart)=  0.00002245 RMS(Int)=  0.82577603 XScale=  0.99899514
 RedQX1 iteration    16 Try  1 RMS(Cart)=  0.00000449 RMS(Int)=  0.82577323 XScale=  0.99900023
 RedQX1 iteration    16 Try  2 RMS(Cart)=  0.00000449 RMS(Int)=  0.82577393 XScale=  0.99899896
 RedQX1 iteration    17 Try  1 RMS(Cart)=  0.00000449 RMS(Int)=  0.82577393 XScale=  0.99899896
 RedQX1 iteration    18 Try  1 RMS(Cart)=  0.00000090 RMS(Int)=  0.82577337 XScale=  0.99899998
 RedQX1 iteration    19 Try  1 RMS(Cart)=  0.00000018 RMS(Int)=  0.82577325 XScale=  0.99900018
 RedQX1 iteration    19 Try  2 RMS(Cart)=  0.00000018 RMS(Int)=  0.82577328 XScale=  0.99900013
 RedQX1 iteration    19 Try  3 RMS(Cart)=  0.00000018 RMS(Int)=  0.82577331 XScale=  0.99900008
 RedQX1 iteration    19 Try  4 RMS(Cart)=  0.00000018 RMS(Int)=  0.82577334 XScale=  0.99900003
 RedQX1 iteration    19 Try  5 RMS(Cart)=  0.00000018 RMS(Int)=  0.82577337 XScale=  0.99899998
 RedQX1 iteration    20 Try  1 RMS(Cart)=  0.00000018 RMS(Int)=  0.82577337 XScale=  0.99899998
 Old curvilinear step not converged, using linear step:
 SCX= 6.94D+00 DXMaxT= 4.94-324 SCLim= 0.00D+00 Fact= 0.00D+00
 RedCar/ORedCr failed for GTrans.
 Error termination via Lnk1e in /home1/apps/gaussian/16rA.03/g16/l101.exe at Sat Oct 22 00:25:13 2022.
 Job cpu time:       0 days  0 hours  0 minutes 16.1 seconds.
 Elapsed time:       0 days  0 hours  0 minutes  2.0 seconds.
 File lengths (MBytes):  RWF=      6 Int=      0 D2E=      0 Chk=      1 Scr=      1
