 Entering Gaussian System, Link 0=g16
 Initial command:
 /home1/apps/gaussian/16rA.03/g16/l1.exe "/tmp/Gau-228718.inp" -scrdir="/tmp/"
 Entering Link 1 = /home1/apps/gaussian/16rA.03/g16/l1.exe PID=    228719.
  
 Copyright (c) 1988,1990,1992,1993,1995,1998,2003,2009,2016,
            Gaussian, Inc.  All Rights Reserved.
  
 This is part of the Gaussian(R) 16 program.  It is based on
 the Gaussian(R) 09 system (copyright 2009, Gaussian, Inc.),
 the Gaussian(R) 03 system (copyright 2003, Gaussian, Inc.),
 the Gaussian(R) 98 system (copyright 1998, Gaussian, Inc.),
 the Gaussian(R) 94 system (copyright 1995, Gaussian, Inc.),
 the Gaussian 92(TM) system (copyright 1992, Gaussian, Inc.),
 the Gaussian 90(TM) system (copyright 1990, Gaussian, Inc.),
 the Gaussian 88(TM) system (copyright 1988, Gaussian, Inc.),
 the Gaussian 86(TM) system (copyright 1986, Carnegie Mellon
 University), and the Gaussian 82(TM) system (copyright 1983,
 Carnegie Mellon University). Gaussian is a federally registered
 trademark of Gaussian, Inc.
  
 This software contains proprietary and confidential information,
 including trade secrets, belonging to Gaussian, Inc.
  
 This software is provided under written license and may be
 used, copied, transmitted, or stored only in accord with that
 written license.
  
 The following legend is applicable only to US Government
 contracts under FAR:
  
                    RESTRICTED RIGHTS LEGEND
  
 Use, reproduction and disclosure by the US Government is
 subject to restrictions as set forth in subparagraphs (a)
 and (c) of the Commercial Computer Software - Restricted
 Rights clause in FAR 52.227-19.
  
 Gaussian, Inc.
 340 Quinnipiac St., Bldg. 40, Wallingford CT 06492
  
  
 ---------------------------------------------------------------
 Warning -- This program may not be used in any manner that
 competes with the business of Gaussian, Inc. or will provide
 assistance to any competitor of Gaussian, Inc.  The licensee
 of this program is prohibited from giving any competitor of
 Gaussian, Inc. access to this program.  By using this program,
 the user acknowledges that Gaussian, Inc. is engaged in the
 business of creating and licensing software in the field of
 computational chemistry and represents and warrants to the
 licensee that it is not a competitor of Gaussian, Inc. and that
 it will not use this program in any manner prohibited above.
 ---------------------------------------------------------------
  

 Cite this work as:
 Gaussian 16, Revision A.03,
 M. J. Frisch, G. W. Trucks, H. B. Schlegel, G. E. Scuseria, 
 M. A. Robb, J. R. Cheeseman, G. Scalmani, V. Barone, 
 G. A. Petersson, H. Nakatsuji, X. Li, M. Caricato, A. V. Marenich, 
 J. Bloino, B. G. Janesko, R. Gomperts, B. Mennucci, H. P. Hratchian, 
 J. V. Ortiz, A. F. Izmaylov, J. L. Sonnenberg, D. Williams-Young, 
 F. Ding, F. Lipparini, F. Egidi, J. Goings, B. Peng, A. Petrone, 
 T. Henderson, D. Ranasinghe, V. G. Zakrzewski, J. Gao, N. Rega, 
 G. Zheng, W. Liang, M. Hada, M. Ehara, K. Toyota, R. Fukuda, 
 J. Hasegawa, M. Ishida, T. Nakajima, Y. Honda, O. Kitao, H. Nakai, 
 T. Vreven, K. Throssell, J. A. Montgomery, Jr., J. E. Peralta, 
 F. Ogliaro, M. J. Bearpark, J. J. Heyd, E. N. Brothers, K. N. Kudin, 
 V. N. Staroverov, T. A. Keith, R. Kobayashi, J. Normand, 
 K. Raghavachari, A. P. Rendell, J. C. Burant, S. S. Iyengar, 
 J. Tomasi, M. Cossi, J. M. Millam, M. Klene, C. Adamo, R. Cammi, 
 J. W. Ochterski, R. L. Martin, K. Morokuma, O. Farkas, 
 J. B. Foresman, and D. J. Fox, Gaussian, Inc., Wallingford CT, 2016.
 
 ******************************************
 Gaussian 16:  ES64L-G16RevA.03 25-Dec-2016
                21-Mar-2023 
 ******************************************
 %NProcShared=12
 Will use up to   12 processors via shared memory.
 %Chk=checkpoint.chk
 %Mem=1200MW
 -------------------------------------------
 # wB97XD Gen SCRF=(Solvent=TetraHydroFuran)
 -------------------------------------------
 1/38=1,172=1/1;
 2/12=2,17=6,18=5,40=1/2;
 3/5=7,11=2,25=1,30=1,70=2201,72=20,74=-58/1,2,3;
 4//1;
 5/5=2,38=5,53=20/2;
 6/7=2,8=2,9=2,10=2,28=1/1;
 99/5=1,9=1/99;
 ---------------------
 Anth Prod Calculation
 ---------------------
 Symbolic Z-matrix:
 Charge =  0 Multiplicity = 1
 Mn                   -1.14084  -2.02031  -0.07247 
 C                    -2.0565   -2.89445  -1.41935 
 O                    -2.55247  -3.48041  -2.26194 
 C                    -2.04901  -2.98496   1.2183 
 O                    -2.52948  -3.63073   2.02526 
 C                     0.12638  -3.27964  -0.11699 
 N                    -0.24046  -0.90582   1.50199 
 C                    -0.52478   0.64851   3.2988 
 C                     0.84907   0.85964   3.3629 
 C                     1.08206  -0.76195   1.6305 
 H                    -1.2097    1.17685   3.96203 
 H                     1.26772   1.58246   4.06642 
 N                    -2.31131   0.82647   0.00208 
 C                    -2.75042   1.89594   0.03017 
 C                    -3.29969   3.22243   0.06642 
 C                    -2.44575   4.33045  -0.04106 
 C                    -2.98398   5.61279  -0.00535 
 C                    -4.68432   3.39644   0.20863 
 H                    -1.37044   4.18131  -0.1519 
 H                    -5.33803   2.52654   0.29168 
 N                    -0.23294  -0.80527  -1.56858 
 C                    -0.50569   0.85238  -3.27243 
 C                     0.86693   1.07815  -3.3036 
 H                    -1.18553   1.41471  -3.91259 
 C                    -1.0318   -0.226     2.34819 
 H                    -2.10698  -0.377     2.24691 
 C                    -1.01815  -0.08291  -2.38449 
 H                    -2.09311  -0.24939  -2.30947 
 H                    -2.32523   6.47894  -0.08843 
 O                     0.95513  -4.07157  -0.14576 
 C                     3.21201   0.60011   0.03173 
 C                     5.99319   0.60061   0.03885 
 C                     1.69084   0.14181   2.50904 
 C                     3.16813   0.31517   2.50662 
 C                     3.88189   0.26904   3.67782 
 C                     5.30413   0.36368   3.68436 
 C                     6.00071   0.46566   2.51418 
 C                     5.31181   0.51377   1.25951 
 C                     3.87632   0.48464   1.2554 
 H                     3.35773   0.11809   4.6244 
 H                     5.83345   0.32236   4.63812 
 H                     7.09241   0.50386   2.5168 
 C                     3.88218   0.5742   -1.19373 
 C                     5.31779   0.60468  -1.18835 
 C                     6.01301   0.6509   -2.43957 
 C                     5.32227   0.63507  -3.61754 
 C                     3.90031   0.5372   -3.6251 
 C                     3.18019   0.49533  -2.45741 
 H                     7.10465   0.69094  -2.43399 
 H                     5.8562    0.66555  -4.56914 
 H                     3.38178   0.45492  -4.58324 
 C                     1.70364   0.31635  -2.48334 
 H                     1.28864   1.84544  -3.95626 
 C                     1.08993  -0.6423   -1.66856 
 H                     1.71029  -1.30623  -1.06742 
 H                     1.70615  -1.3953    1.00028 
 C                    -4.36137   5.7896    0.13616 
 C                    -5.20809   4.68519   0.2427 
 H                    -6.28438   4.82771   0.353 
 H                    -4.77887   6.79814   0.16362 
 Br                   -4.94895  -1.71019  -0.01043 
 H                     7.08507   0.64961   0.04374 
 H                     2.13057   0.70351   0.0329 
 
 Stoichiometry    C34H21BrMnN3O3
 Framework group  C1[X(C34H21BrMnN3O3)]
 Deg. of freedom   183
 Full point group                 C1      NOp   1
 Largest Abelian subgroup         C1      NOp   1
 Largest concise Abelian subgroup C1      NOp   1
                         Standard orientation:                         
 ---------------------------------------------------------------------
 Center     Atomic      Atomic             Coordinates (Angstroms)
 Number     Number       Type             X           Y           Z
 ---------------------------------------------------------------------
      1         25           0       -1.140840   -2.020309   -0.072470
      2          6           0       -2.056500   -2.894449   -1.419350
      3          8           0       -2.552470   -3.480409   -2.261940
      4          6           0       -2.049010   -2.984959    1.218300
      5          8           0       -2.529480   -3.630729    2.025260
      6          6           0        0.126380   -3.279639   -0.116990
      7          7           0       -0.240460   -0.905819    1.501990
      8          6           0       -0.524780    0.648511    3.298800
      9          6           0        0.849070    0.859641    3.362900
     10          6           0        1.082060   -0.761949    1.630500
     11          1           0       -1.209700    1.176851    3.962030
     12          1           0        1.267720    1.582461    4.066420
     13          7           0       -2.311310    0.826471    0.002080
     14          6           0       -2.750420    1.895941    0.030170
     15          6           0       -3.299690    3.222431    0.066420
     16          6           0       -2.445750    4.330451   -0.041060
     17          6           0       -2.983980    5.612791   -0.005350
     18          6           0       -4.684320    3.396441    0.208630
     19          1           0       -1.370440    4.181311   -0.151900
     20          1           0       -5.338030    2.526541    0.291680
     21          7           0       -0.232940   -0.805269   -1.568580
     22          6           0       -0.505690    0.852381   -3.272430
     23          6           0        0.866930    1.078151   -3.303600
     24          1           0       -1.185530    1.414711   -3.912590
     25          6           0       -1.031800   -0.225999    2.348190
     26          1           0       -2.106980   -0.376999    2.246910
     27          6           0       -1.018150   -0.082909   -2.384490
     28          1           0       -2.093110   -0.249389   -2.309470
     29          1           0       -2.325230    6.478941   -0.088430
     30          8           0        0.955130   -4.071569   -0.145760
     31          6           0        3.212010    0.600111    0.031730
     32          6           0        5.993190    0.600611    0.038850
     33          6           0        1.690840    0.141811    2.509040
     34          6           0        3.168130    0.315171    2.506620
     35          6           0        3.881890    0.269041    3.677820
     36          6           0        5.304130    0.363681    3.684360
     37          6           0        6.000710    0.465661    2.514180
     38          6           0        5.311810    0.513771    1.259510
     39          6           0        3.876320    0.484641    1.255400
     40          1           0        3.357730    0.118091    4.624400
     41          1           0        5.833450    0.322361    4.638120
     42          1           0        7.092410    0.503861    2.516800
     43          6           0        3.882180    0.574201   -1.193730
     44          6           0        5.317790    0.604681   -1.188350
     45          6           0        6.013010    0.650901   -2.439570
     46          6           0        5.322270    0.635071   -3.617540
     47          6           0        3.900310    0.537201   -3.625100
     48          6           0        3.180190    0.495331   -2.457410
     49          1           0        7.104650    0.690941   -2.433990
     50          1           0        5.856200    0.665551   -4.569140
     51          1           0        3.381780    0.454921   -4.583240
     52          6           0        1.703640    0.316351   -2.483340
     53          1           0        1.288640    1.845441   -3.956260
     54          6           0        1.089930   -0.642299   -1.668560
     55          1           0        1.710290   -1.306229   -1.067420
     56          1           0        1.706150   -1.395299    1.000280
     57          6           0       -4.361370    5.789601    0.136160
     58          6           0       -5.208090    4.685191    0.242700
     59          1           0       -6.284380    4.827711    0.353000
     60          1           0       -4.778870    6.798141    0.163620
     61         35           0       -4.948950   -1.710189   -0.010430
     62          1           0        7.085070    0.649611    0.043740
     63          1           0        2.130570    0.703511    0.032900
 ---------------------------------------------------------------------
 Rotational constants (GHZ):           0.0899458           0.0495956           0.0452034
 General basis read from cards:  (5D, 7F)
 There are  1900 symmetry adapted cartesian basis functions of A   symmetry.
 There are  1655 symmetry adapted basis functions of A   symmetry.
  1655 basis functions,  2651 primitive gaussians,  1900 cartesian basis functions
   165 alpha electrons      165 beta electrons
       nuclear repulsion energy      5860.1859826260 Hartrees.
 NAtoms=   63 NActive=   63 NUniq=   63 SFac= 1.00D+00 NAtFMM=   60 NAOKFM=T Big=T
 Integral buffers will be    131072 words long.
 Raffenetti 2 integral format.
 Two-electron integral symmetry is turned on.
 Nuclear repulsion after empirical dispersion term =     5860.1229136750 Hartrees.
 ------------------------------------------------------------------------------
 Polarizable Continuum Model (PCM)
 =================================
 Model                : PCM.
 Atomic radii         : UFF (Universal Force Field).
 Polarization charges : Total charges.
 Charge compensation  : None.
 Solution method      : On-the-fly selection.
 Cavity type          : Scaled VdW (van der Waals Surface) (Alpha=1.100).
 Cavity algorithm     : GePol (No added spheres)
                        Default sphere list used, NSphG=   63.
                        Lebedev-Laikov grids with approx.  5.0 points / Ang**2.
                        Smoothing algorithm: York/Karplus (Gamma=1.0000).
                        Polarization charges: spherical gaussians, with
                                              point-specific exponents (IZeta= 3).
                        Self-potential: point-specific (ISelfS= 7).
                        Self-field    : sphere-specific E.n sum rule (ISelfD= 2).
 Solvent              : TetraHydroFuran, Eps=   7.425700 Eps(inf)=   1.974025
 ------------------------------------------------------------------------------
 One-electron integrals computed using PRISM.
 NBasis=  1655 RedAO= T EigKep=  3.85D-06  NBF=  1655
 NBsUse=  1655 1.00D-06 EigRej= -1.00D+00 NBFU=  1655
 ExpMin= 2.90D-02 ExpMax= 5.65D+05 ExpMxC= 5.46D+03 IAcc=3 IRadAn=         5 AccDes= 0.00D+00
 Harris functional with IExCor= 4639 and IRadAn=       5 diagonalized for initial guess.
 HarFok:  IExCor= 4639 AccDes= 0.00D+00 IRadAn=         5 IDoV= 1 UseB2=F ITyADJ=14
 ICtDFT=  3500011 ScaDFX=  1.000000  1.000000  1.000000  1.000000
 FoFCou: FMM=F IPFlag=           0 FMFlag=      100000 FMFlg1=        2001
         NFxFlg=           0 DoJE=T BraDBF=F KetDBF=T FulRan=T
         wScrn=  0.000000 ICntrl=       500 IOpCl=  0 I1Cent=   200000004 NGrid=           0
         NMat0=    1 NMatS0=      1 NMatT0=    0 NMatD0=    1 NMtDS0=    0 NMtDT0=    0
 Petite list used in FoFCou.
 Requested convergence on RMS density matrix=1.00D-08 within 128 cycles.
 Requested convergence on MAX density matrix=1.00D-06.
 Requested convergence on             energy=1.00D-06.
 No special actions if energy rises.
 Inv3:  Mode=1 IEnd=    73864332.
 Iteration    1 A*A^-1 deviation from unit magnitude is 3.77D-15 for   3803.
 Iteration    1 A*A^-1 deviation from orthogonality  is 2.51D-15 for   2284    182.
 Iteration    1 A^-1*A deviation from unit magnitude is 4.00D-15 for    374.
 Iteration    1 A^-1*A deviation from orthogonality  is 2.51D-15 for   2129    708.
 EnCoef did    15 forward-backward iterations
 Restarting incremental Fock formation.
 Error on total polarization charges =  0.02549
 SCF Done:  E(RwB97XD) =  -5423.58173285     A.U. after   21 cycles
            NFock= 21  Conv=0.46D-08     -V/T= 2.0027

 **********************************************************************

            Population analysis using the SCF density.

 **********************************************************************

 Orbital symmetries:
       Occupied  (A) (A) (A) (A) (A) (A) (A) (A) (A) (A) (A) (A)
                 (A) (A) (A) (A) (A) (A) (A) (A) (A) (A) (A) (A)
                 (A) (A) (A) (A) (A) (A) (A) (A) (A) (A) (A) (A)
                 (A) (A) (A) (A) (A) (A) (A) (A) (A) (A) (A) (A)
                 (A) (A) (A) (A) (A) (A) (A) (A) (A) (A) (A) (A)
                 (A) (A) (A) (A) (A) (A) (A) (A) (A) (A) (A) (A)
                 (A) (A) (A) (A) (A) (A) (A) (A) (A) (A) (A) (A)
                 (A) (A) (A) (A) (A) (A) (A) (A) (A) (A) (A) (A)
                 (A) (A) (A) (A) (A) (A) (A) (A) (A) (A) (A) (A)
                 (A) (A) (A) (A) (A) (A) (A) (A) (A) (A) (A) (A)
                 (A) (A) (A) (A) (A) (A) (A) (A) (A) (A) (A) (A)
                 (A) (A) (A) (A) (A) (A) (A) (A) (A) (A) (A) (A)
                 (A) (A) (A) (A) (A) (A) (A) (A) (A) (A) (A) (A)
                 (A) (A) (A) (A) (A) (A) (A) (A) (A)
       Virtual   (A) (A) (A) (A) (A) (A) (A) (A) (A) (A) (A) (A)
                 (A) (A) (A) (A) (A) (A) (A) (A) (A) (A) (A) (A)
                 (A) (A) (A) (A) (A) (A) (A) (A) (A) (A) (A) (A)
                 (A) (A) (A) (A) (A) (A) (A) (A) (A) (A) (A) (A)
                 (A) (A) (A) (A) (A) (A) (A) (A) (A) (A) (A) (A)
                 (A) (A) (A) (A) (A) (A) (A) (A) (A) (A) (A) (A)
                 (A) (A) (A) (A) (A) (A) (A) (A) (A) (A) (A) (A)
                 (A) (A) (A) (A) (A) (A) (A) (A) (A) (A) (A) (A)
                 (A) (A) (A) (A) (A) (A) (A) (A) (A) (A) (A) (A)
                 (A) (A) (A) (A) (A) (A) (A) (A) (A) (A) (A) (A)
                 (A) (A) (A) (A) (A) (A) (A) (A) (A) (A) (A) (A)
                 (A) (A) (A) (A) (A) (A) (A) (A) (A) (A) (A) (A)
                 (A) (A) (A) (A) (A) (A) (A) (A) (A) (A) (A) (A)
                 (A) (A) (A) (A) (A) (A) (A) (A) (A) (A) (A) (A)
                 (A) (A) (A) (A) (A) (A) (A) (A) (A) (A) (A) (A)
                 (A) (A) (A) (A) (A) (A) (A) (A) (A) (A) (A) (A)
                 (A) (A) (A) (A) (A) (A) (A) (A) (A) (A) (A) (A)
                 (A) (A) (A) (A) (A) (A) (A) (A) (A) (A) (A) (A)
                 (A) (A) (A) (A) (A) (A) (A) (A) (A) (A) (A) (A)
                 (A) (A) (A) (A) (A) (A) (A) (A) (A) (A) (A) (A)
                 (A) (A) (A) (A) (A) (A) (A) (A) (A) (A) (A) (A)
                 (A) (A) (A) (A) (A) (A) (A) (A) (A) (A) (A) (A)
                 (A) (A) (A) (A) (A) (A) (A) (A) (A) (A) (A) (A)
                 (A) (A) (A) (A) (A) (A) (A) (A) (A) (A) (A) (A)
                 (A) (A) (A) (A) (A) (A) (A) (A) (A) (A) (A) (A)
                 (A) (A) (A) (A) (A) (A) (A) (A) (A) (A) (A) (A)
                 (A) (A) (A) (A) (A) (A) (A) (A) (A) (A) (A) (A)
                 (A) (A) (A) (A) (A) (A) (A) (A) (A) (A) (A) (A)
                 (A) (A) (A) (A) (A) (A) (A) (A) (A) (A) (A) (A)
                 (A) (A) (A) (A) (A) (A) (A) (A) (A) (A) (A) (A)
                 (A) (A) (A) (A) (A) (A) (A) (A) (A) (A) (A) (A)
                 (A) (A) (A) (A) (A) (A) (A) (A) (A) (A) (A) (A)
                 (A) (A) (A) (A) (A) (A) (A) (A) (A) (A) (A) (A)
                 (A) (A) (A) (A) (A) (A) (A) (A) (A) (A) (A) (A)
                 (A) (A) (A) (A) (A) (A) (A) (A) (A) (A) (A) (A)
                 (A) (A) (A) (A) (A) (A) (A) (A) (A) (A) (A) (A)
                 (A) (A) (A) (A) (A) (A) (A) (A) (A) (A) (A) (A)
                 (A) (A) (A) (A) (A) (A) (A) (A) (A) (A) (A) (A)
                 (A) (A) (A) (A) (A) (A) (A) (A) (A) (A) (A) (A)
                 (A) (A) (A) (A) (A) (A) (A) (A) (A) (A) (A) (A)
                 (A) (A) (A) (A) (A) (A) (A) (A) (A) (A) (A) (A)
                 (A) (A) (A) (A) (A) (A) (A) (A) (A) (A) (A) (A)
                 (A) (A) (A) (A) (A) (A) (A) (A) (A) (A) (A) (A)
                 (A) (A) (A) (A) (A) (A) (A) (A) (A) (A) (A) (A)
                 (A) (A) (A) (A) (A) (A) (A) (A) (A) (A) (A) (A)
                 (A) (A) (A) (A) (A) (A) (A) (A) (A) (A) (A) (A)
                 (A) (A) (A) (A) (A) (A) (A) (A) (A) (A) (A) (A)
                 (A) (A) (A) (A) (A) (A) (A) (A) (A) (A) (A) (A)
                 (A) (A) (A) (A) (A) (A) (A) (A) (A) (A) (A) (A)
                 (A) (A) (A) (A) (A) (A) (A) (A) (A) (A) (A) (A)
                 (A) (A) (A) (A) (A) (A) (A) (A) (A) (A) (A) (A)
                 (A) (A) (A) (A) (A) (A) (A) (A) (A) (A) (A) (A)
                 (A) (A) (A) (A) (A) (A) (A) (A) (A) (A) (A) (A)
                 (A) (A) (A) (A) (A) (A) (A) (A) (A) (A) (A) (A)
                 (A) (A) (A) (A) (A) (A) (A) (A) (A) (A) (A) (A)
                 (A) (A) (A) (A) (A) (A) (A) (A) (A) (A) (A) (A)
                 (A) (A) (A) (A) (A) (A) (A) (A) (A) (A) (A) (A)
                 (A) (A) (A) (A) (A) (A) (A) (A) (A) (A) (A) (A)
                 (A) (A) (A) (A) (A) (A) (A) (A) (A) (A) (A) (A)
                 (A) (A) (A) (A) (A) (A) (A) (A) (A) (A) (A) (A)
                 (A) (A) (A) (A) (A) (A) (A) (A) (A) (A) (A) (A)
                 (A) (A) (A) (A) (A) (A) (A) (A) (A) (A) (A) (A)
                 (A) (A) (A) (A) (A) (A) (A) (A) (A) (A) (A) (A)
                 (A) (A) (A) (A) (A) (A) (A) (A) (A) (A) (A) (A)
                 (A) (A) (A) (A) (A) (A) (A) (A) (A) (A) (A) (A)
                 (A) (A) (A) (A) (A) (A) (A) (A) (A) (A) (A) (A)
                 (A) (A) (A) (A) (A) (A) (A) (A) (A) (A) (A) (A)
                 (A) (A) (A) (A) (A) (A) (A) (A) (A) (A) (A) (A)
                 (A) (A) (A) (A) (A) (A) (A) (A) (A) (A) (A) (A)
                 (A) (A) (A) (A) (A) (A) (A) (A) (A) (A) (A) (A)
                 (A) (A) (A) (A) (A) (A) (A) (A) (A) (A) (A) (A)
                 (A) (A) (A) (A) (A) (A) (A) (A) (A) (A) (A) (A)
                 (A) (A) (A) (A) (A) (A) (A) (A) (A) (A) (A) (A)
                 (A) (A) (A) (A) (A) (A) (A) (A) (A) (A) (A) (A)
                 (A) (A) (A) (A) (A) (A) (A) (A) (A) (A) (A) (A)
                 (A) (A) (A) (A) (A) (A) (A) (A) (A) (A) (A) (A)
                 (A) (A) (A) (A) (A) (A) (A) (A) (A) (A) (A) (A)
                 (A) (A) (A) (A) (A) (A) (A) (A) (A) (A) (A) (A)
                 (A) (A) (A) (A) (A) (A) (A) (A) (A) (A) (A) (A)
                 (A) (A) (A) (A) (A) (A) (A) (A) (A) (A) (A) (A)
                 (A) (A) (A) (A) (A) (A) (A) (A) (A) (A) (A) (A)
                 (A) (A) (A) (A) (A) (A) (A) (A) (A) (A) (A) (A)
                 (A) (A) (A) (A) (A) (A) (A) (A) (A) (A) (A) (A)
                 (A) (A) (A) (A) (A) (A) (A) (A) (A) (A) (A) (A)
                 (A) (A) (A) (A) (A) (A) (A) (A) (A) (A) (A) (A)
                 (A) (A) (A) (A) (A) (A) (A) (A) (A) (A) (A) (A)
                 (A) (A) (A) (A) (A) (A) (A) (A) (A) (A) (A) (A)
                 (A) (A) (A) (A) (A) (A) (A) (A) (A) (A) (A) (A)
                 (A) (A) (A) (A) (A) (A) (A) (A) (A) (A) (A) (A)
                 (A) (A) (A) (A) (A) (A) (A) (A) (A) (A) (A) (A)
                 (A) (A) (A) (A) (A) (A) (A) (A) (A) (A) (A) (A)
                 (A) (A) (A) (A) (A) (A) (A) (A) (A) (A) (A) (A)
                 (A) (A) (A) (A) (A) (A) (A) (A) (A) (A) (A) (A)
                 (A) (A) (A) (A) (A) (A) (A) (A) (A) (A) (A) (A)
                 (A) (A) (A) (A) (A) (A) (A) (A) (A) (A) (A) (A)
                 (A) (A) (A) (A) (A) (A) (A) (A) (A) (A) (A) (A)
                 (A) (A) (A) (A) (A) (A) (A) (A) (A) (A) (A) (A)
                 (A) (A) (A) (A) (A) (A) (A) (A) (A) (A) (A) (A)
                 (A) (A) (A) (A) (A) (A) (A) (A) (A) (A) (A) (A)
                 (A) (A) (A) (A) (A) (A) (A) (A) (A) (A) (A) (A)
                 (A) (A) (A) (A) (A) (A) (A) (A) (A) (A) (A) (A)
                 (A) (A) (A) (A) (A) (A) (A) (A) (A) (A) (A) (A)
                 (A) (A) (A) (A) (A) (A) (A) (A) (A) (A) (A) (A)
                 (A) (A) (A) (A) (A) (A) (A) (A) (A) (A) (A) (A)
                 (A) (A) (A) (A) (A) (A) (A) (A) (A) (A) (A) (A)
                 (A) (A) (A) (A) (A) (A) (A) (A) (A) (A) (A) (A)
                 (A) (A) (A) (A) (A) (A) (A) (A) (A) (A) (A) (A)
                 (A) (A) (A) (A) (A) (A) (A) (A) (A) (A) (A) (A)
                 (A) (A) (A) (A) (A) (A) (A) (A) (A) (A) (A) (A)
                 (A) (A) (A) (A) (A) (A) (A) (A) (A) (A) (A) (A)
                 (A) (A) (A) (A) (A) (A) (A) (A) (A) (A) (A) (A)
                 (A) (A) (A) (A) (A) (A) (A) (A) (A) (A) (A) (A)
                 (A) (A) (A) (A) (A) (A) (A) (A) (A) (A) (A) (A)
                 (A) (A) (A) (A) (A) (A) (A) (A) (A) (A) (A) (A)
                 (A) (A) (A) (A) (A) (A) (A) (A) (A) (A) (A) (A)
                 (A) (A) (A) (A) (A) (A) (A) (A) (A) (A) (A) (A)
                 (A) (A) (A) (A) (A) (A) (A) (A) (A) (A) (A) (A)
                 (A) (A) (A) (A) (A) (A) (A) (A) (A) (A) (A) (A)
                 (A) (A) (A) (A) (A) (A) (A) (A) (A) (A) (A) (A)
                 (A) (A) (A) (A) (A) (A) (A) (A) (A) (A) (A) (A)
                 (A) (A) (A) (A) (A) (A) (A) (A) (A) (A) (A) (A)
                 (A) (A) (A) (A) (A) (A) (A) (A) (A) (A) (A) (A)
                 (A) (A) (A) (A) (A) (A) (A) (A) (A) (A) (A) (A)
                 (A) (A) (A) (A) (A) (A) (A) (A) (A) (A) (A) (A)
                 (A) (A)
 The electronic state is 1-A.
 Alpha  occ. eigenvalues -- -483.01726-235.71511 -62.56610 -56.35496 -56.35484
 Alpha  occ. eigenvalues --  -56.35480 -27.47884 -23.53841 -23.53505 -23.53438
 Alpha  occ. eigenvalues --  -19.33321 -19.33291 -19.33284 -14.49531 -14.49523
 Alpha  occ. eigenvalues --  -14.45089 -10.40827 -10.40764 -10.40757 -10.35635
 Alpha  occ. eigenvalues --  -10.35626 -10.35101 -10.35088 -10.34570 -10.34464
 Alpha  occ. eigenvalues --  -10.33436 -10.33421 -10.33144 -10.33138 -10.32460
 Alpha  occ. eigenvalues --  -10.32445 -10.32159 -10.32154 -10.32144 -10.31958
 Alpha  occ. eigenvalues --  -10.31948 -10.31939 -10.31773 -10.31766 -10.31379
 Alpha  occ. eigenvalues --  -10.31127 -10.31024 -10.30950 -10.30942 -10.30766
 Alpha  occ. eigenvalues --  -10.30656 -10.30651 -10.30621 -10.30503 -10.30500
 Alpha  occ. eigenvalues --   -8.70672  -6.52099  -6.52066  -6.52051  -3.27148
 Alpha  occ. eigenvalues --   -2.62598  -2.62592  -2.62581  -2.62554  -2.62553
 Alpha  occ. eigenvalues --   -2.12986  -2.12096  -2.12002  -1.24544  -1.24467
 Alpha  occ. eigenvalues --   -1.24346  -1.09124  -1.08812  -1.02883  -1.00780
 Alpha  occ. eigenvalues --   -0.98442  -0.98115  -0.94966  -0.93761  -0.91870
 Alpha  occ. eigenvalues --   -0.91354  -0.90347  -0.88750  -0.87998  -0.87074
 Alpha  occ. eigenvalues --   -0.85789  -0.85527  -0.82413  -0.77107  -0.76117
 Alpha  occ. eigenvalues --   -0.75736  -0.75716  -0.75149  -0.74761  -0.74655
 Alpha  occ. eigenvalues --   -0.72591  -0.72399  -0.70428  -0.69213  -0.68849
 Alpha  occ. eigenvalues --   -0.65977  -0.65955  -0.65839  -0.65017  -0.64725
 Alpha  occ. eigenvalues --   -0.64481  -0.62485  -0.62002  -0.60716  -0.59966
 Alpha  occ. eigenvalues --   -0.59420  -0.58334  -0.57911  -0.57433  -0.57006
 Alpha  occ. eigenvalues --   -0.56807  -0.56496  -0.56392  -0.56045  -0.55674
 Alpha  occ. eigenvalues --   -0.55651  -0.55122  -0.54880  -0.54716  -0.54434
 Alpha  occ. eigenvalues --   -0.54247  -0.53963  -0.53091  -0.52885  -0.52362
 Alpha  occ. eigenvalues --   -0.52317  -0.52292  -0.51937  -0.51144  -0.51118
 Alpha  occ. eigenvalues --   -0.51005  -0.50868  -0.50436  -0.49315  -0.48924
 Alpha  occ. eigenvalues --   -0.48337  -0.47959  -0.47360  -0.47153  -0.45889
 Alpha  occ. eigenvalues --   -0.45618  -0.44999  -0.44640  -0.43574  -0.43414
 Alpha  occ. eigenvalues --   -0.43206  -0.42185  -0.41693  -0.41065  -0.40567
 Alpha  occ. eigenvalues --   -0.40136  -0.39475  -0.37620  -0.36364  -0.35582
 Alpha  occ. eigenvalues --   -0.35054  -0.33701  -0.33548  -0.33307  -0.33164
 Alpha  occ. eigenvalues --   -0.32326  -0.29774  -0.29648  -0.29376  -0.27854
 Alpha virt. eigenvalues --   -0.03104  -0.00770  -0.00349   0.00522   0.00722
 Alpha virt. eigenvalues --    0.01727   0.01874   0.02297   0.03480   0.04161
 Alpha virt. eigenvalues --    0.04290   0.06040   0.06602   0.06731   0.07412
 Alpha virt. eigenvalues --    0.08464   0.08767   0.08854   0.09319   0.09360
 Alpha virt. eigenvalues --    0.09785   0.10036   0.10636   0.11093   0.11722
 Alpha virt. eigenvalues --    0.12841   0.13103   0.13203   0.13434   0.13503
 Alpha virt. eigenvalues --    0.13645   0.14105   0.14545   0.15470   0.16061
 Alpha virt. eigenvalues --    0.16322   0.16976   0.17118   0.17325   0.17658
 Alpha virt. eigenvalues --    0.17705   0.18230   0.18282   0.18668   0.18983
 Alpha virt. eigenvalues --    0.19053   0.19219   0.19626   0.19780   0.20056
 Alpha virt. eigenvalues --    0.20550   0.20647   0.20933   0.20998   0.22265
 Alpha virt. eigenvalues --    0.22391   0.22455   0.23244   0.23536   0.23911
 Alpha virt. eigenvalues --    0.24216   0.24409   0.25150   0.25220   0.25267
 Alpha virt. eigenvalues --    0.25367   0.25947   0.26572   0.26790   0.26840
 Alpha virt. eigenvalues --    0.27057   0.27154   0.27473   0.27573   0.27816
 Alpha virt. eigenvalues --    0.28439   0.28490   0.28935   0.28998   0.29196
 Alpha virt. eigenvalues --    0.29385   0.29492   0.29571   0.29905   0.30015
 Alpha virt. eigenvalues --    0.30362   0.30498   0.30546   0.30588   0.31180
 Alpha virt. eigenvalues --    0.31338   0.31567   0.32035   0.32221   0.32339
 Alpha virt. eigenvalues --    0.32467   0.33097   0.33350   0.33422   0.33680
 Alpha virt. eigenvalues --    0.34006   0.34286   0.34632   0.34797   0.34981
 Alpha virt. eigenvalues --    0.35407   0.35474   0.35902   0.35941   0.36553
 Alpha virt. eigenvalues --    0.36722   0.36790   0.37250   0.37542   0.37896
 Alpha virt. eigenvalues --    0.38181   0.38328   0.38395   0.38934   0.39116
 Alpha virt. eigenvalues --    0.39365   0.39583   0.39977   0.40272   0.40486
 Alpha virt. eigenvalues --    0.40660   0.40701   0.41174   0.41229   0.41468
 Alpha virt. eigenvalues --    0.41639   0.41994   0.42028   0.42197   0.42479
 Alpha virt. eigenvalues --    0.42769   0.43021   0.43267   0.43385   0.43662
 Alpha virt. eigenvalues --    0.44291   0.44351   0.44583   0.44858   0.45250
 Alpha virt. eigenvalues --    0.45531   0.45761   0.46020   0.46244   0.46530
 Alpha virt. eigenvalues --    0.46939   0.47249   0.47329   0.47801   0.47920
 Alpha virt. eigenvalues --    0.48063   0.48183   0.48432   0.48551   0.48818
 Alpha virt. eigenvalues --    0.48948   0.49337   0.49533   0.49612   0.49990
 Alpha virt. eigenvalues --    0.50422   0.50464   0.50898   0.50996   0.51080
 Alpha virt. eigenvalues --    0.51600   0.51674   0.52056   0.52794   0.52949
 Alpha virt. eigenvalues --    0.53324   0.53461   0.53553   0.54263   0.54291
 Alpha virt. eigenvalues --    0.54718   0.54897   0.55411   0.55560   0.55766
 Alpha virt. eigenvalues --    0.56097   0.56215   0.56325   0.56679   0.56896
 Alpha virt. eigenvalues --    0.57031   0.57133   0.57368   0.57503   0.57917
 Alpha virt. eigenvalues --    0.58394   0.58655   0.58667   0.59092   0.59149
 Alpha virt. eigenvalues --    0.59521   0.59926   0.60106   0.60345   0.60645
 Alpha virt. eigenvalues --    0.60798   0.60854   0.61633   0.61823   0.62243
 Alpha virt. eigenvalues --    0.62331   0.62709   0.62949   0.63308   0.63882
 Alpha virt. eigenvalues --    0.64172   0.64466   0.64700   0.64990   0.65169
 Alpha virt. eigenvalues --    0.65399   0.65610   0.65812   0.65890   0.67102
 Alpha virt. eigenvalues --    0.67148   0.67522   0.67889   0.67916   0.68226
 Alpha virt. eigenvalues --    0.68443   0.69176   0.69232   0.69762   0.70023
 Alpha virt. eigenvalues --    0.70473   0.70816   0.71242   0.71283   0.71592
 Alpha virt. eigenvalues --    0.71801   0.71910   0.72241   0.72381   0.72849
 Alpha virt. eigenvalues --    0.72912   0.73026   0.73330   0.73539   0.73813
 Alpha virt. eigenvalues --    0.74096   0.74207   0.74638   0.74748   0.75008
 Alpha virt. eigenvalues --    0.75390   0.75436   0.75895   0.76212   0.76517
 Alpha virt. eigenvalues --    0.76767   0.77271   0.77331   0.77508   0.77696
 Alpha virt. eigenvalues --    0.78236   0.78534   0.78588   0.78854   0.78934
 Alpha virt. eigenvalues --    0.79405   0.79490   0.79747   0.80139   0.80736
 Alpha virt. eigenvalues --    0.80957   0.81173   0.81270   0.81587   0.82120
 Alpha virt. eigenvalues --    0.82290   0.83047   0.83326   0.83404   0.83764
 Alpha virt. eigenvalues --    0.83931   0.84696   0.84831   0.85367   0.85464
 Alpha virt. eigenvalues --    0.85808   0.86863   0.86981   0.87176   0.87256
 Alpha virt. eigenvalues --    0.87797   0.87969   0.88345   0.88763   0.88891
 Alpha virt. eigenvalues --    0.89594   0.89673   0.90021   0.90266   0.90663
 Alpha virt. eigenvalues --    0.90983   0.91200   0.91448   0.91835   0.92254
 Alpha virt. eigenvalues --    0.92905   0.93084   0.93500   0.93686   0.93744
 Alpha virt. eigenvalues --    0.94013   0.94723   0.94888   0.94949   0.95230
 Alpha virt. eigenvalues --    0.95548   0.95659   0.96306   0.96506   0.97106
 Alpha virt. eigenvalues --    0.97161   0.97663   0.98215   0.98490   0.98603
 Alpha virt. eigenvalues --    0.98668   0.98943   0.99034   0.99958   1.00227
 Alpha virt. eigenvalues --    1.00813   1.01224   1.01905   1.01941   1.02179
 Alpha virt. eigenvalues --    1.02724   1.02785   1.03194   1.03476   1.03584
 Alpha virt. eigenvalues --    1.03931   1.04144   1.04458   1.04908   1.05176
 Alpha virt. eigenvalues --    1.05333   1.06091   1.06396   1.06651   1.07188
 Alpha virt. eigenvalues --    1.07674   1.07842   1.07939   1.08477   1.08644
 Alpha virt. eigenvalues --    1.08763   1.09336   1.09689   1.10532   1.11170
 Alpha virt. eigenvalues --    1.11237   1.11797   1.11895   1.12167   1.12601
 Alpha virt. eigenvalues --    1.13314   1.13627   1.13932   1.14215   1.14957
 Alpha virt. eigenvalues --    1.15109   1.15530   1.15611   1.16255   1.16399
 Alpha virt. eigenvalues --    1.16900   1.17208   1.17894   1.18137   1.18488
 Alpha virt. eigenvalues --    1.18635   1.19186   1.19263   1.19665   1.19695
 Alpha virt. eigenvalues --    1.20579   1.20950   1.21061   1.21411   1.21933
 Alpha virt. eigenvalues --    1.22491   1.22730   1.23098   1.23417   1.23688
 Alpha virt. eigenvalues --    1.23824   1.24589   1.25263   1.25439   1.25713
 Alpha virt. eigenvalues --    1.26035   1.26225   1.26552   1.26615   1.27399
 Alpha virt. eigenvalues --    1.27727   1.27953   1.28014   1.28626   1.28638
 Alpha virt. eigenvalues --    1.29254   1.30073   1.30189   1.30437   1.30995
 Alpha virt. eigenvalues --    1.31279   1.31867   1.32010   1.32359   1.33170
 Alpha virt. eigenvalues --    1.33308   1.33695   1.34058   1.34470   1.34591
 Alpha virt. eigenvalues --    1.35114   1.35143   1.35935   1.36273   1.36342
 Alpha virt. eigenvalues --    1.37116   1.37702   1.38001   1.38173   1.38317
 Alpha virt. eigenvalues --    1.38449   1.39066   1.39861   1.39894   1.40309
 Alpha virt. eigenvalues --    1.40614   1.40972   1.41041   1.41069   1.41212
 Alpha virt. eigenvalues --    1.42159   1.42434   1.42704   1.43068   1.43291
 Alpha virt. eigenvalues --    1.43590   1.43788   1.44512   1.45001   1.45074
 Alpha virt. eigenvalues --    1.45132   1.45487   1.45680   1.45731   1.45898
 Alpha virt. eigenvalues --    1.47047   1.47140   1.47527   1.48355   1.48639
 Alpha virt. eigenvalues --    1.48707   1.49059   1.49722   1.49880   1.50189
 Alpha virt. eigenvalues --    1.51108   1.51206   1.51434   1.51516   1.51794
 Alpha virt. eigenvalues --    1.52002   1.52745   1.53364   1.53754   1.53991
 Alpha virt. eigenvalues --    1.54416   1.54521   1.54676   1.54841   1.54904
 Alpha virt. eigenvalues --    1.55549   1.56094   1.56608   1.56749   1.57348
 Alpha virt. eigenvalues --    1.57493   1.57582   1.57894   1.59157   1.59418
 Alpha virt. eigenvalues --    1.59476   1.60004   1.60121   1.60359   1.60408
 Alpha virt. eigenvalues --    1.60671   1.60938   1.61215   1.61526   1.62283
 Alpha virt. eigenvalues --    1.62691   1.63394   1.64021   1.64150   1.64636
 Alpha virt. eigenvalues --    1.64993   1.65470   1.65733   1.66127   1.66366
 Alpha virt. eigenvalues --    1.66520   1.66745   1.66841   1.67761   1.68007
 Alpha virt. eigenvalues --    1.68244   1.68794   1.68945   1.69287   1.69709
 Alpha virt. eigenvalues --    1.70099   1.70292   1.70836   1.70938   1.71542
 Alpha virt. eigenvalues --    1.71616   1.71793   1.71944   1.72227   1.72397
 Alpha virt. eigenvalues --    1.72699   1.72767   1.72996   1.73558   1.74642
 Alpha virt. eigenvalues --    1.74830   1.74998   1.75113   1.75360   1.75675
 Alpha virt. eigenvalues --    1.75850   1.76635   1.76739   1.76794   1.77718
 Alpha virt. eigenvalues --    1.77745   1.77821   1.78366   1.78715   1.78960
 Alpha virt. eigenvalues --    1.79028   1.79583   1.79861   1.80273   1.80388
 Alpha virt. eigenvalues --    1.80619   1.80854   1.81140   1.81950   1.82536
 Alpha virt. eigenvalues --    1.83322   1.83443   1.83756   1.83871   1.84438
 Alpha virt. eigenvalues --    1.84859   1.85137   1.85822   1.85946   1.86492
 Alpha virt. eigenvalues --    1.87639   1.87890   1.87926   1.88467   1.88868
 Alpha virt. eigenvalues --    1.89112   1.89511   1.89762   1.90871   1.91098
 Alpha virt. eigenvalues --    1.91937   1.92205   1.92345   1.92651   1.94214
 Alpha virt. eigenvalues --    1.94224   1.95085   1.95269   1.95882   1.97178
 Alpha virt. eigenvalues --    1.97557   1.97986   1.98760   1.99217   1.99573
 Alpha virt. eigenvalues --    1.99893   2.00306   2.00428   2.01263   2.02132
 Alpha virt. eigenvalues --    2.02648   2.03491   2.03790   2.04168   2.04700
 Alpha virt. eigenvalues --    2.04781   2.05437   2.06042   2.06722   2.06899
 Alpha virt. eigenvalues --    2.07149   2.07930   2.08068   2.08488   2.08563
 Alpha virt. eigenvalues --    2.09190   2.10027   2.10404   2.11521   2.11699
 Alpha virt. eigenvalues --    2.12646   2.12864   2.13966   2.14351   2.14738
 Alpha virt. eigenvalues --    2.15168   2.15326   2.15928   2.16303   2.16817
 Alpha virt. eigenvalues --    2.16871   2.17392   2.18580   2.19006   2.19133
 Alpha virt. eigenvalues --    2.20078   2.21137   2.22162   2.22281   2.22696
 Alpha virt. eigenvalues --    2.23261   2.23952   2.24172   2.24465   2.25081
 Alpha virt. eigenvalues --    2.25157   2.27044   2.27427   2.28468   2.28921
 Alpha virt. eigenvalues --    2.29142   2.29799   2.31009   2.32022   2.33166
 Alpha virt. eigenvalues --    2.33208   2.33819   2.34313   2.34424   2.35110
 Alpha virt. eigenvalues --    2.35943   2.36289   2.37086   2.37509   2.37844
 Alpha virt. eigenvalues --    2.38726   2.39455   2.39981   2.40110   2.40253
 Alpha virt. eigenvalues --    2.40833   2.41792   2.42153   2.42423   2.42576
 Alpha virt. eigenvalues --    2.42700   2.43522   2.44374   2.44498   2.45239
 Alpha virt. eigenvalues --    2.45281   2.46017   2.46504   2.47334   2.47884
 Alpha virt. eigenvalues --    2.48449   2.48693   2.49343   2.49462   2.49668
 Alpha virt. eigenvalues --    2.50760   2.50888   2.51253   2.53174   2.53976
 Alpha virt. eigenvalues --    2.54629   2.56212   2.56971   2.57430   2.57820
 Alpha virt. eigenvalues --    2.60489   2.61017   2.61815   2.61967   2.62845
 Alpha virt. eigenvalues --    2.63407   2.64595   2.64723   2.64915   2.66737
 Alpha virt. eigenvalues --    2.67794   2.68595   2.69225   2.69277   2.69481
 Alpha virt. eigenvalues --    2.70100   2.70906   2.71062   2.71485   2.72319
 Alpha virt. eigenvalues --    2.72871   2.73104   2.73796   2.74662   2.74829
 Alpha virt. eigenvalues --    2.75068   2.75287   2.75435   2.76059   2.76453
 Alpha virt. eigenvalues --    2.76855   2.77366   2.77833   2.78234   2.78890
 Alpha virt. eigenvalues --    2.79046   2.79141   2.79503   2.79822   2.80147
 Alpha virt. eigenvalues --    2.80192   2.81351   2.81622   2.81716   2.82351
 Alpha virt. eigenvalues --    2.82683   2.83012   2.83234   2.83328   2.83913
 Alpha virt. eigenvalues --    2.84600   2.84803   2.85489   2.85690   2.85888
 Alpha virt. eigenvalues --    2.86549   2.86899   2.87252   2.87584   2.87948
 Alpha virt. eigenvalues --    2.88114   2.88553   2.88946   2.89509   2.89780
 Alpha virt. eigenvalues --    2.89809   2.90883   2.91149   2.91504   2.92635
 Alpha virt. eigenvalues --    2.93280   2.93440   2.94308   2.94474   2.94988
 Alpha virt. eigenvalues --    2.95143   2.95310   2.95602   2.96253   2.96845
 Alpha virt. eigenvalues --    2.97135   2.97183   2.97802   2.98130   2.98198
 Alpha virt. eigenvalues --    2.98359   2.98556   2.98994   2.99533   2.99581
 Alpha virt. eigenvalues --    2.99676   2.99806   3.00100   3.00920   3.01116
 Alpha virt. eigenvalues --    3.01298   3.01417   3.01472   3.01582   3.02090
 Alpha virt. eigenvalues --    3.02663   3.03245   3.03358   3.03541   3.03667
 Alpha virt. eigenvalues --    3.03984   3.04076   3.04726   3.05259   3.05454
 Alpha virt. eigenvalues --    3.05805   3.06139   3.06672   3.06871   3.06974
 Alpha virt. eigenvalues --    3.07393   3.07625   3.08127   3.08247   3.08425
 Alpha virt. eigenvalues --    3.08677   3.09029   3.09167   3.09499   3.09699
 Alpha virt. eigenvalues --    3.09766   3.10098   3.10386   3.10538   3.10834
 Alpha virt. eigenvalues --    3.11395   3.11447   3.12093   3.12373   3.12515
 Alpha virt. eigenvalues --    3.12858   3.13139   3.13717   3.13833   3.14159
 Alpha virt. eigenvalues --    3.14362   3.14698   3.14963   3.15494   3.15551
 Alpha virt. eigenvalues --    3.15923   3.16123   3.16162   3.16451   3.16930
 Alpha virt. eigenvalues --    3.16997   3.17420   3.17481   3.18137   3.18421
 Alpha virt. eigenvalues --    3.18723   3.19013   3.19062   3.19632   3.19802
 Alpha virt. eigenvalues --    3.20324   3.20615   3.21186   3.21457   3.21979
 Alpha virt. eigenvalues --    3.22028   3.22414   3.22470   3.22594   3.22646
 Alpha virt. eigenvalues --    3.22777   3.22973   3.23309   3.23620   3.23730
 Alpha virt. eigenvalues --    3.24624   3.24780   3.25039   3.25071   3.25344
 Alpha virt. eigenvalues --    3.25609   3.25657   3.26112   3.26164   3.27217
 Alpha virt. eigenvalues --    3.27377   3.27564   3.27787   3.28596   3.28691
 Alpha virt. eigenvalues --    3.29106   3.29258   3.29528   3.29762   3.30437
 Alpha virt. eigenvalues --    3.30555   3.30799   3.30823   3.31218   3.31832
 Alpha virt. eigenvalues --    3.32028   3.32101   3.32921   3.33256   3.33464
 Alpha virt. eigenvalues --    3.33909   3.34919   3.35127   3.35795   3.35972
 Alpha virt. eigenvalues --    3.36111   3.36386   3.36502   3.36721   3.37275
 Alpha virt. eigenvalues --    3.37442   3.38014   3.38339   3.38764   3.39542
 Alpha virt. eigenvalues --    3.39713   3.40042   3.40350   3.40640   3.41153
 Alpha virt. eigenvalues --    3.41618   3.41976   3.42159   3.42179   3.42759
 Alpha virt. eigenvalues --    3.43641   3.43858   3.44235   3.44414   3.44599
 Alpha virt. eigenvalues --    3.44750   3.45277   3.45495   3.45773   3.46021
 Alpha virt. eigenvalues --    3.46320   3.46713   3.46960   3.47467   3.48136
 Alpha virt. eigenvalues --    3.48308   3.48351   3.48464   3.48710   3.48972
 Alpha virt. eigenvalues --    3.49808   3.49954   3.50103   3.50816   3.51267
 Alpha virt. eigenvalues --    3.51342   3.51535   3.51660   3.51899   3.52046
 Alpha virt. eigenvalues --    3.52506   3.53202   3.53562   3.54006   3.54551
 Alpha virt. eigenvalues --    3.55065   3.55448   3.55662   3.55783   3.55947
 Alpha virt. eigenvalues --    3.56900   3.57483   3.57578   3.57599   3.58081
 Alpha virt. eigenvalues --    3.58669   3.58808   3.59158   3.59496   3.59907
 Alpha virt. eigenvalues --    3.60002   3.61035   3.61501   3.61886   3.62083
 Alpha virt. eigenvalues --    3.62453   3.63177   3.63314   3.63864   3.64422
 Alpha virt. eigenvalues --    3.64525   3.64911   3.65204   3.65282   3.66994
 Alpha virt. eigenvalues --    3.67348   3.67990   3.68251   3.69073   3.69553
 Alpha virt. eigenvalues --    3.70169   3.70535   3.70998   3.71267   3.71489
 Alpha virt. eigenvalues --    3.72295   3.72614   3.72918   3.73190   3.73999
 Alpha virt. eigenvalues --    3.74145   3.74297   3.74742   3.75152   3.75254
 Alpha virt. eigenvalues --    3.76594   3.76821   3.77060   3.78571   3.78791
 Alpha virt. eigenvalues --    3.79239   3.79699   3.79818   3.80891   3.81241
 Alpha virt. eigenvalues --    3.81362   3.81600   3.82131   3.82883   3.83285
 Alpha virt. eigenvalues --    3.83401   3.83574   3.83835   3.84160   3.84512
 Alpha virt. eigenvalues --    3.84725   3.85022   3.85272   3.85881   3.86160
 Alpha virt. eigenvalues --    3.86260   3.86364   3.86867   3.87246   3.87467
 Alpha virt. eigenvalues --    3.87575   3.87912   3.88150   3.88774   3.89157
 Alpha virt. eigenvalues --    3.89173   3.90863   3.91217   3.91413   3.91596
 Alpha virt. eigenvalues --    3.91683   3.92438   3.92622   3.92746   3.93705
 Alpha virt. eigenvalues --    3.94076   3.95038   3.95629   3.95872   3.95943
 Alpha virt. eigenvalues --    3.96319   3.96673   3.97512   3.97740   3.98093
 Alpha virt. eigenvalues --    3.99203   3.99433   3.99893   3.99987   4.00534
 Alpha virt. eigenvalues --    4.00676   4.01078   4.01206   4.02019   4.02759
 Alpha virt. eigenvalues --    4.02812   4.03024   4.04052   4.04708   4.05253
 Alpha virt. eigenvalues --    4.05566   4.05752   4.06244   4.06612   4.06722
 Alpha virt. eigenvalues --    4.07579   4.07947   4.08648   4.09503   4.09681
 Alpha virt. eigenvalues --    4.09878   4.10677   4.10758   4.11983   4.12170
 Alpha virt. eigenvalues --    4.12533   4.13014   4.13306   4.13484   4.14185
 Alpha virt. eigenvalues --    4.14369   4.14863   4.15094   4.15312   4.15971
 Alpha virt. eigenvalues --    4.16637   4.16839   4.16973   4.18107   4.18226
 Alpha virt. eigenvalues --    4.18587   4.19201   4.19285   4.19383   4.19452
 Alpha virt. eigenvalues --    4.20064   4.21299   4.21401   4.21976   4.23265
 Alpha virt. eigenvalues --    4.23516   4.23893   4.24045   4.24178   4.24792
 Alpha virt. eigenvalues --    4.25208   4.26059   4.26119   4.26230   4.27464
 Alpha virt. eigenvalues --    4.27547   4.27958   4.28049   4.28321   4.29256
 Alpha virt. eigenvalues --    4.29398   4.29778   4.30137   4.30533   4.30849
 Alpha virt. eigenvalues --    4.31349   4.31447   4.31664   4.31857   4.33173
 Alpha virt. eigenvalues --    4.33519   4.33762   4.34385   4.34608   4.34934
 Alpha virt. eigenvalues --    4.35141   4.36187   4.36340   4.36872   4.37518
 Alpha virt. eigenvalues --    4.37930   4.38411   4.38917   4.39068   4.39312
 Alpha virt. eigenvalues --    4.39408   4.41252   4.41949   4.42274   4.42637
 Alpha virt. eigenvalues --    4.42750   4.43103   4.43423   4.43628   4.44043
 Alpha virt. eigenvalues --    4.44796   4.45019   4.45247   4.45389   4.46261
 Alpha virt. eigenvalues --    4.46865   4.48151   4.49095   4.49632   4.49897
 Alpha virt. eigenvalues --    4.50569   4.50657   4.51055   4.51889   4.52469
 Alpha virt. eigenvalues --    4.53622   4.53772   4.54468   4.55306   4.55955
 Alpha virt. eigenvalues --    4.56454   4.57733   4.57908   4.58350   4.58964
 Alpha virt. eigenvalues --    4.60740   4.60869   4.61131   4.62019   4.62447
 Alpha virt. eigenvalues --    4.62863   4.63458   4.64066   4.64353   4.64880
 Alpha virt. eigenvalues --    4.65833   4.66386   4.67578   4.68019   4.69144
 Alpha virt. eigenvalues --    4.69905   4.70223   4.70918   4.71178   4.71476
 Alpha virt. eigenvalues --    4.72550   4.73295   4.73655   4.73791   4.74781
 Alpha virt. eigenvalues --    4.74881   4.75288   4.75476   4.76444   4.77446
 Alpha virt. eigenvalues --    4.78301   4.78895   4.79220   4.80009   4.80412
 Alpha virt. eigenvalues --    4.80566   4.80740   4.81738   4.82681   4.83821
 Alpha virt. eigenvalues --    4.84488   4.84677   4.85000   4.86019   4.87194
 Alpha virt. eigenvalues --    4.87535   4.89373   4.91274   4.91553   4.91699
 Alpha virt. eigenvalues --    4.92800   4.93417   4.93462   4.93525   4.93963
 Alpha virt. eigenvalues --    4.94146   4.94772   4.95980   4.96042   4.97324
 Alpha virt. eigenvalues --    4.97571   4.98530   4.99413   5.01349   5.01956
 Alpha virt. eigenvalues --    5.02687   5.02811   5.03195   5.03814   5.03912
 Alpha virt. eigenvalues --    5.04499   5.07246   5.07360   5.07867   5.09015
 Alpha virt. eigenvalues --    5.10340   5.10983   5.11398   5.14237   5.15351
 Alpha virt. eigenvalues --    5.15565   5.15907   5.16948   5.17401   5.18008
 Alpha virt. eigenvalues --    5.18359   5.18412   5.18510   5.18656   5.18697
 Alpha virt. eigenvalues --    5.18927   5.19277   5.20832   5.21028   5.21999
 Alpha virt. eigenvalues --    5.22632   5.23078   5.23818   5.24466   5.25547
 Alpha virt. eigenvalues --    5.25802   5.25841   5.26409   5.26649   5.27222
 Alpha virt. eigenvalues --    5.27967   5.28932   5.29771   5.30124   5.30809
 Alpha virt. eigenvalues --    5.31849   5.32050   5.32532   5.32716   5.34053
 Alpha virt. eigenvalues --    5.34684   5.36020   5.36377   5.36667   5.38032
 Alpha virt. eigenvalues --    5.38382   5.39802   5.40345   5.40784   5.41337
 Alpha virt. eigenvalues --    5.42327   5.42697   5.43012   5.43386   5.44798
 Alpha virt. eigenvalues --    5.44911   5.45240   5.47069   5.47108   5.47838
 Alpha virt. eigenvalues --    5.49571   5.50025   5.52928   5.52956   5.54826
 Alpha virt. eigenvalues --    5.56407   5.57461   5.57825   5.58731   5.58826
 Alpha virt. eigenvalues --    5.59044   5.59335   5.60430   5.61974   5.62270
 Alpha virt. eigenvalues --    5.63112   5.63516   5.64244   5.66265   5.67161
 Alpha virt. eigenvalues --    5.67559   5.70456   5.71546   5.72604   5.73171
 Alpha virt. eigenvalues --    5.74460   5.74538   5.75468   5.76112   5.77670
 Alpha virt. eigenvalues --    5.77827   5.79825   5.84071   5.85956   5.87501
 Alpha virt. eigenvalues --    5.91627   5.92187   5.93187   5.95034   5.96370
 Alpha virt. eigenvalues --    5.96701   5.99612   6.02254   6.04186   6.07125
 Alpha virt. eigenvalues --    6.07699   6.08418   6.10916   6.15402   6.16832
 Alpha virt. eigenvalues --    6.18817   6.21415   6.22297   6.23212   6.23405
 Alpha virt. eigenvalues --    6.26010   6.26475   6.28073   6.32137   6.32933
 Alpha virt. eigenvalues --    6.33049   6.35087   6.35271   6.35537   6.37060
 Alpha virt. eigenvalues --    6.37157   6.38688   6.42490   6.43298   6.45904
 Alpha virt. eigenvalues --    6.47155   6.56201   6.68127   6.70937   6.72437
 Alpha virt. eigenvalues --    6.73114   6.74093   6.76023   6.81558   6.83553
 Alpha virt. eigenvalues --    6.84751   6.88088   6.88687   6.89663   6.90947
 Alpha virt. eigenvalues --    7.11091   7.17573   7.18827   7.24300   7.24433
 Alpha virt. eigenvalues --    7.26780   7.40541   7.40793   7.45498   7.46872
 Alpha virt. eigenvalues --    7.50217   7.63450   7.69357   8.10313   8.34211
 Alpha virt. eigenvalues --    8.36376   8.37082   8.70316   8.77336   8.80916
 Alpha virt. eigenvalues --   22.70562  22.74304  23.03466  23.04144  23.13792
 Alpha virt. eigenvalues --   23.14801  23.17024  23.19254  23.22845  23.23337
 Alpha virt. eigenvalues --   23.24778  23.25102  23.25822  23.26269  23.27650
 Alpha virt. eigenvalues --   23.28969  23.30474  23.34975  23.36495  23.41658
 Alpha virt. eigenvalues --   23.43003  23.44371  23.48205  23.51993  23.56365
 Alpha virt. eigenvalues --   23.57241  23.60954  23.71867  23.74751  23.79706
 Alpha virt. eigenvalues --   23.83138  24.11285  24.19755  24.44889  32.69739
 Alpha virt. eigenvalues --   32.95096  32.97573  43.98446  44.00180  44.01842
          Condensed to atoms (all electrons):
 Mulliken charges:
               1
     1  Mn   0.359096
     2  C    0.167622
     3  O   -0.093312
     4  C    0.165645
     5  O   -0.093307
     6  C   -0.047600
     7  N   -0.149927
     8  C   -0.174717
     9  C   -0.107104
    10  C   -0.033333
    11  H    0.142658
    12  H    0.144226
    13  N   -0.146600
    14  C    0.033699
    15  C    0.179930
    16  C   -0.191345
    17  C   -0.122828
    18  C   -0.196587
    19  H    0.137524
    20  H    0.149089
    21  N   -0.152616
    22  C   -0.176319
    23  C   -0.107923
    24  H    0.142671
    25  C    0.084409
    26  H    0.146532
    27  C    0.083776
    28  H    0.147030
    29  H    0.142775
    30  O   -0.119945
    31  C   -0.298842
    32  C   -0.014679
    33  C   -0.001599
    34  C    0.102216
    35  C   -0.136699
    36  C   -0.121114
    37  C   -0.125408
    38  C   -0.011603
    39  C   -0.038009
    40  H    0.133069
    41  H    0.138019
    42  H    0.123940
    43  C   -0.036458
    44  C   -0.010319
    45  C   -0.125334
    46  C   -0.121408
    47  C   -0.137440
    48  C    0.101644
    49  H    0.123910
    50  H    0.137974
    51  H    0.132901
    52  C   -0.001146
    53  H    0.144282
    54  C   -0.032352
    55  H    0.146208
    56  H    0.145901
    57  C   -0.101074
    58  C   -0.118007
    59  H    0.144840
    60  H    0.145140
    61  Br  -0.941110
    62  H    0.112058
    63  H    0.227278
 Sum of Mulliken charges =  -0.00000
 Mulliken charges with hydrogens summed into heavy atoms:
               1
     1  Mn   0.359096
     2  C    0.167622
     3  O   -0.093312
     4  C    0.165645
     5  O   -0.093307
     6  C   -0.047600
     7  N   -0.149927
     8  C   -0.032058
     9  C    0.037122
    10  C    0.112568
    13  N   -0.146600
    14  C    0.033699
    15  C    0.179930
    16  C   -0.053821
    17  C    0.019947
    18  C   -0.047498
    21  N   -0.152616
    22  C   -0.033648
    23  C    0.036359
    25  C    0.230941
    27  C    0.230806
    30  O   -0.119945
    31  C   -0.071563
    32  C    0.097379
    33  C   -0.001599
    34  C    0.102216
    35  C   -0.003630
    36  C    0.016905
    37  C   -0.001468
    38  C   -0.011603
    39  C   -0.038009
    43  C   -0.036458
    44  C   -0.010319
    45  C   -0.001424
    46  C    0.016566
    47  C   -0.004539
    48  C    0.101644
    52  C   -0.001146
    54  C    0.113856
    57  C    0.044066
    58  C    0.026833
    61  Br  -0.941110
 Electronic spatial extent (au):  <R**2>=          25433.0532
 Charge=              0.0000 electrons
 Dipole moment (field-independent basis, Debye):
    X=             19.4486    Y=             14.6787    Z=              0.2550  Tot=             24.3676
 Quadrupole moment (field-independent basis, Debye-Ang):
   XX=           -306.6347   YY=           -250.6749   ZZ=           -220.3474
   XY=            -56.2301   XZ=             -1.7222   YZ=             -1.4684
 Traceless Quadrupole moment (field-independent basis, Debye-Ang):
   XX=            -47.4157   YY=              8.5441   ZZ=             38.8716
   XY=            -56.2301   XZ=             -1.7222   YZ=             -1.4684
 Octapole moment (field-independent basis, Debye-Ang**2):
  XXX=            495.6770  YYY=            126.2531  ZZZ=              2.2024  XYY=           -134.9290
  XXY=            290.7188  XXZ=             12.5738  XZZ=             49.8791  YZZ=             12.3322
  YYZ=             -2.9466  XYZ=            -10.6475
 Hexadecapole moment (field-independent basis, Debye-Ang**3):
 XXXX=         -19112.3481 YYYY=          -7174.3209 ZZZZ=          -5537.3813 XXXY=          -1222.3535
 XXXZ=            -66.3883 YYYX=           -643.2380 YYYZ=             13.0668 ZZZX=             11.9353
 ZZZY=            -33.7138 XXYY=          -4536.8493 XXZZ=          -3823.9789 YYZZ=          -2561.8860
 XXYZ=             18.9828 YYXZ=            -31.3920 ZZXY=            134.9015
 N-N= 5.860122913675D+03 E-N=-2.456184077754D+04  KE= 5.409140337546D+03
 1\1\GINC-C407-091\SP\RwB97XD\Gen\C34H21Br1Mn1N3O3\DMCINTOS\22-Mar-2023
 \0\\# wB97XD Gen SCRF=(Solvent=TetraHydroFuran)\\Anth Prod Calculation
 \\0,1\Mn,0,-1.14084,-2.02031,-0.07247\C,0,-2.0565,-2.89445,-1.41935\O,
 0,-2.55247,-3.48041,-2.26194\C,0,-2.04901,-2.98496,1.2183\O,0,-2.52948
 ,-3.63073,2.02526\C,0,0.12638,-3.27964,-0.11699\N,0,-0.24046,-0.90582,
 1.50199\C,0,-0.52478,0.64851,3.2988\C,0,0.84907,0.85964,3.3629\C,0,1.0
 8206,-0.76195,1.6305\H,0,-1.2097,1.17685,3.96203\H,0,1.26772,1.58246,4
 .06642\N,0,-2.31131,0.82647,0.00208\C,0,-2.75042,1.89594,0.03017\C,0,-
 3.29969,3.22243,0.06642\C,0,-2.44575,4.33045,-0.04106\C,0,-2.98398,5.6
 1279,-0.00535\C,0,-4.68432,3.39644,0.20863\H,0,-1.37044,4.18131,-0.151
 9\H,0,-5.33803,2.52654,0.29168\N,0,-0.23294,-0.80527,-1.56858\C,0,-0.5
 0569,0.85238,-3.27243\C,0,0.86693,1.07815,-3.3036\H,0,-1.18553,1.41471
 ,-3.91259\C,0,-1.0318,-0.226,2.34819\H,0,-2.10698,-0.377,2.24691\C,0,-
 1.01815,-0.08291,-2.38449\H,0,-2.09311,-0.24939,-2.30947\H,0,-2.32523,
 6.47894,-0.08843\O,0,0.95513,-4.07157,-0.14576\C,0,3.21201,0.60011,0.0
 3173\C,0,5.99319,0.60061,0.03885\C,0,1.69084,0.14181,2.50904\C,0,3.168
 13,0.31517,2.50662\C,0,3.88189,0.26904,3.67782\C,0,5.30413,0.36368,3.6
 8436\C,0,6.00071,0.46566,2.51418\C,0,5.31181,0.51377,1.25951\C,0,3.876
 32,0.48464,1.2554\H,0,3.35773,0.11809,4.6244\H,0,5.83345,0.32236,4.638
 12\H,0,7.09241,0.50386,2.5168\C,0,3.88218,0.5742,-1.19373\C,0,5.31779,
 0.60468,-1.18835\C,0,6.01301,0.6509,-2.43957\C,0,5.32227,0.63507,-3.61
 754\C,0,3.90031,0.5372,-3.6251\C,0,3.18019,0.49533,-2.45741\H,0,7.1046
 5,0.69094,-2.43399\H,0,5.8562,0.66555,-4.56914\H,0,3.38178,0.45492,-4.
 58324\C,0,1.70364,0.31635,-2.48334\H,0,1.28864,1.84544,-3.95626\C,0,1.
 08993,-0.6423,-1.66856\H,0,1.71029,-1.30623,-1.06742\H,0,1.70615,-1.39
 53,1.00028\C,0,-4.36137,5.7896,0.13616\C,0,-5.20809,4.68519,0.2427\H,0
 ,-6.28438,4.82771,0.353\H,0,-4.77887,6.79814,0.16362\Br,0,-4.94895,-1.
 71019,-0.01043\H,0,7.08507,0.64961,0.04374\H,0,2.13057,0.70351,0.0329\
 \Version=ES64L-G16RevA.03\State=1-A\HF=-5423.5817329\RMSD=4.583e-09\Di
 pole=7.6516824,5.7750583,0.1003164\Quadrupole=-35.2524126,6.3523439,28
 .9000688,-41.8056871,-1.280412,-1.091723\PG=C01 [X(C34H21Br1Mn1N3O3)]\
 \@


 PERICLES, SOPHOCLES,
 PELOPONESIAN WAR,
 FRENCH VERBS, LATIN VERBS
 H2SO4.
 Job cpu time:       8 days  9 hours 24 minutes 17.2 seconds.
 Elapsed time:       0 days 16 hours 55 minutes 50.5 seconds.
 File lengths (MBytes):  RWF=   1824 Int=      0 D2E=      0 Chk=    160 Scr=      1
 Normal termination of Gaussian 16 at Wed Mar 22 14:01:19 2023.
