 Entering Gaussian System, Link 0=g16
 Initial command:
 /home1/apps/gaussian/16rA.03/g16/l1.exe "/tmp/Gau-79646.inp" -scrdir="/tmp/"
 Entering Link 1 = /home1/apps/gaussian/16rA.03/g16/l1.exe PID=     79648.
  
 Copyright (c) 1988,1990,1992,1993,1995,1998,2003,2009,2016,
            Gaussian, Inc.  All Rights Reserved.
  
 This is part of the Gaussian(R) 16 program.  It is based on
 the Gaussian(R) 09 system (copyright 2009, Gaussian, Inc.),
 the Gaussian(R) 03 system (copyright 2003, Gaussian, Inc.),
 the Gaussian(R) 98 system (copyright 1998, Gaussian, Inc.),
 the Gaussian(R) 94 system (copyright 1995, Gaussian, Inc.),
 the Gaussian 92(TM) system (copyright 1992, Gaussian, Inc.),
 the Gaussian 90(TM) system (copyright 1990, Gaussian, Inc.),
 the Gaussian 88(TM) system (copyright 1988, Gaussian, Inc.),
 the Gaussian 86(TM) system (copyright 1986, Carnegie Mellon
 University), and the Gaussian 82(TM) system (copyright 1983,
 Carnegie Mellon University). Gaussian is a federally registered
 trademark of Gaussian, Inc.
  
 This software contains proprietary and confidential information,
 including trade secrets, belonging to Gaussian, Inc.
  
 This software is provided under written license and may be
 used, copied, transmitted, or stored only in accord with that
 written license.
  
 The following legend is applicable only to US Government
 contracts under FAR:
  
                    RESTRICTED RIGHTS LEGEND
  
 Use, reproduction and disclosure by the US Government is
 subject to restrictions as set forth in subparagraphs (a)
 and (c) of the Commercial Computer Software - Restricted
 Rights clause in FAR 52.227-19.
  
 Gaussian, Inc.
 340 Quinnipiac St., Bldg. 40, Wallingford CT 06492
  
  
 ---------------------------------------------------------------
 Warning -- This program may not be used in any manner that
 competes with the business of Gaussian, Inc. or will provide
 assistance to any competitor of Gaussian, Inc.  The licensee
 of this program is prohibited from giving any competitor of
 Gaussian, Inc. access to this program.  By using this program,
 the user acknowledges that Gaussian, Inc. is engaged in the
 business of creating and licensing software in the field of
 computational chemistry and represents and warrants to the
 licensee that it is not a competitor of Gaussian, Inc. and that
 it will not use this program in any manner prohibited above.
 ---------------------------------------------------------------
  

 Cite this work as:
 Gaussian 16, Revision A.03,
 M. J. Frisch, G. W. Trucks, H. B. Schlegel, G. E. Scuseria, 
 M. A. Robb, J. R. Cheeseman, G. Scalmani, V. Barone, 
 G. A. Petersson, H. Nakatsuji, X. Li, M. Caricato, A. V. Marenich, 
 J. Bloino, B. G. Janesko, R. Gomperts, B. Mennucci, H. P. Hratchian, 
 J. V. Ortiz, A. F. Izmaylov, J. L. Sonnenberg, D. Williams-Young, 
 F. Ding, F. Lipparini, F. Egidi, J. Goings, B. Peng, A. Petrone, 
 T. Henderson, D. Ranasinghe, V. G. Zakrzewski, J. Gao, N. Rega, 
 G. Zheng, W. Liang, M. Hada, M. Ehara, K. Toyota, R. Fukuda, 
 J. Hasegawa, M. Ishida, T. Nakajima, Y. Honda, O. Kitao, H. Nakai, 
 T. Vreven, K. Throssell, J. A. Montgomery, Jr., J. E. Peralta, 
 F. Ogliaro, M. J. Bearpark, J. J. Heyd, E. N. Brothers, K. N. Kudin, 
 V. N. Staroverov, T. A. Keith, R. Kobayashi, J. Normand, 
 K. Raghavachari, A. P. Rendell, J. C. Burant, S. S. Iyengar, 
 J. Tomasi, M. Cossi, J. M. Millam, M. Klene, C. Adamo, R. Cammi, 
 J. W. Ochterski, R. L. Martin, K. Morokuma, O. Farkas, 
 J. B. Foresman, and D. J. Fox, Gaussian, Inc., Wallingford CT, 2016.
 
 ******************************************
 Gaussian 16:  ES64L-G16RevA.03 25-Dec-2016
                22-Oct-2022 
 ******************************************
 %Chk=checkpoint.chk
 %NProcShared=12
 Will use up to   12 processors via shared memory.
 ------------------------------------------------------
 # wB97XD Gen Opt=(QST2) SCRF=(Solvent=TetraHydroFuran)
 ------------------------------------------------------
 1/5=1,18=20,26=3,27=202,38=1/1,3;
 2/9=110,12=2,17=6,18=5,40=1/2;
 3/5=7,11=2,25=1,30=1,70=2201,71=1,72=20,74=-58/1,2,3;
 4//1;
 5/5=2,38=5,53=20/2;
 6/7=2,8=2,9=2,10=2,28=1/1;
 7//1,2,3,16;
 1/5=1,18=20,26=3,27=202/3(2);
 2/9=110/2;
 99//99;
 2/9=110/2;
 3/5=7,6=1,11=2,25=1,30=1,70=2205,71=1,72=20,74=-58,82=7/1,2,3;
 4/5=5,16=3,69=1/1;
 5/5=2,38=5,53=20/2;
 7//1,2,3,16;
 1/5=1,18=20,26=3,27=202/3(-5);
 2/9=110/2;
 6/7=2,8=2,9=2,10=2,19=2,28=1/1;
 99/9=1/99;
 ----------------------------
 Mn Transition State Reactant
 ----------------------------
 Symbolic Z-matrix:
 Charge =  0 Multiplicity = 1
 Mn                    0.        0.        0. 
 C                    -0.09679   1.8323    0.02295 
 C                     0.        0.       -1.82342 
 C                     1.83282   0.       -0.02938 
 Br                    2.02073   2.02073   2.02073 
 N                    -0.04922  -2.15482   0.09332 
 N                    -2.15153  -0.14036   0.09515 
 C                     0.52385  -2.93988  -0.8355 
 C                     0.57609  -4.32182  -0.71618 
 C                     0.03787  -4.93262   0.41495 
 C                    -0.56724  -4.13205   1.38331 
 C                    -0.59422  -2.75751   1.15179 
 C                    -2.76019  -0.33999   1.26803 
 C                    -4.08404  -0.75052   1.40528 
 C                    -2.90821  -0.24504  -1.01025 
 C                    -4.25761  -0.57119  -0.97276 
 C                    -4.8572   -0.85573   0.2508 
 C                    -4.54612  -1.14763   2.76568 
 C                    -1.06072  -4.64508   2.69242 
 C                    -2.36035  -4.39435   3.17469 
 C                    -4.2951   -2.45577   3.22064 
 C                    -2.7088   -4.77698   4.4776 
 C                    -4.6235   -2.81682   4.53378 
 C                    -5.16246  -0.23395   3.6234 
 C                    -0.16193  -5.33835   3.51187 
 C                    -0.5204   -5.73496   4.79711 
 C                    -5.49479  -0.60032   4.92642 
 C                    -5.20842  -1.88092   5.39075 
 C                    -1.78362  -5.43139   5.29359 
 S                    -3.59561  -3.66717   2.11779 
 S                    -4.34059  -4.47249   5.11215 
 H                     1.05087  -4.91025  -1.50139 
 H                     0.08951  -6.01597   0.54182 
 H                    -1.07315  -2.12266   1.89001 
 H                    -2.16282  -0.19695   2.1652 
 H                    -2.4226   -0.06909  -1.96947 
 H                    -4.81913  -0.6322   -1.90505 
 H                    -5.90099  -1.1706    0.30616 
 H                    -5.36522   0.7782    3.26819 
 H                     0.84657  -5.53732   3.14359 
 H                     0.19986  -6.26023   5.42631 
 H                    -5.96589   0.12432   5.59251 
 H                    -5.4428   -2.16193   6.41931 
 H                    -2.05931  -5.70427   6.31399 
 O                     0.06255   0.01915  -2.96537 
 O                     2.97377  -0.00521  -0.04518 
 O                    -0.17883   2.9698    0.0391 
 H                     0.9665   -2.44597  -1.70172 
 N                     0.1205   -0.06435   2.03055 
 C                     0.1757   -0.32041   3.1556 
 C                     0.0988   -0.78664   4.50696 
 C                     1.18058  -0.65782   5.389 
 C                    -1.08395  -1.43608   4.90265 
 C                     1.07101  -1.1882    6.67028 
 H                     2.09302  -0.15307   5.06933 
 C                    -1.1749   -1.96428   6.18414 
 H                    -1.92637  -1.52866   4.21411 
 C                    -0.09853  -1.84109   7.06447 
 H                     1.90634  -1.09472   7.36578 
 H                    -2.08869  -2.47607   6.49182 
 H                    -0.17211  -2.25847   8.07044 
 
 Add virtual bond connecting atoms C2         and Br5        Dist= 5.51D+00.
 Add virtual bond connecting atoms C4         and Br5        Dist= 5.45D+00.
 Add virtual bond connecting atoms N49        and Br5        Dist= 5.33D+00.
 ---------------------------
 Mn Transition State Product
 ---------------------------
 Symbolic Z-matrix:
 Charge =  0 Multiplicity = 1
 Mn                    0.        0.        0. 
 C                    -0.08831   1.81915   0.02694 
 C                     0.        0.       -1.79318 
 C                     1.82129   0.        0.02701 
 Br                    0.21406   0.22525   2.60296 
 N                    -0.00198  -2.15626   0.10267 
 N                    -2.15359  -0.10666   0.10261 
 C                     0.38734  -2.90055  -0.94769 
 C                     0.33894  -4.28645  -0.94857 
 C                    -0.15783  -4.94905   0.17197 
 C                    -0.57167  -4.19114   1.26468 
 C                    -0.44573  -2.80197   1.18369 
 C                    -2.77703  -0.58203   1.18326 
 C                    -4.15855  -0.77451   1.26439 
 C                    -2.91591   0.24739  -0.9473 
 C                    -4.29788   0.13244  -0.94805 
 C                    -4.93564  -0.39652   0.17216 
 C                    -4.73565  -1.36773   2.50277 
 C                    -1.13591  -4.79615   2.50328 
 C                    -2.48294  -4.59586   2.85783 
 C                    -4.47     -2.70335   2.85753 
 C                    -2.9782   -5.11928   4.05963 
 C                    -4.96894  -3.2234    4.05928 
 C                    -5.54655  -0.59398   3.33896 
 C                    -0.32361  -5.56806   3.33979 
 C                    -0.82204  -6.0942    4.52932 
 C                    -6.04809  -1.11734   4.52841 
 C                    -5.74193  -2.42245   4.90321 
 C                    -2.14059  -5.85203   4.90386 
 S                    -3.58496  -3.76369   1.73597 
 S                    -4.6875   -4.9209    4.50034 
 H                     0.67663  -4.83606  -1.82736 
 H                    -0.23113  -6.03846   0.19274 
 H                    -0.69729  -2.18819   2.04804 
 H                    -2.15175  -0.80469   2.04727 
 H                    -2.4021    0.64317  -1.82367 
 H                    -4.86325   0.44411  -1.82647 
 H                    -6.02029  -0.52198   0.19305 
 H                    -5.76345   0.43908   3.05961 
 H                     0.71885  -5.73439   3.0606 
 H                    -0.17222  -6.6814    5.18043 
 H                    -6.66649  -0.49688   5.17925 
 H                    -6.10842  -2.82852   5.84804 
 H                    -2.52842  -6.23768   5.84873 
 O                     0.04791   0.05036  -2.9414 
 O                     2.96474  -0.00968   0.05082 
 O                    -0.15349   2.9608    0.05043 
 H                     0.75715  -2.36822  -1.82434 
 N                    -1.3568   -1.3568    4.0704 
 C                    -0.64777  -0.64777   4.64932 
 C                     0.23399   0.23321   5.36889 
 C                     1.52128  -0.20134   5.7174 
 C                    -0.20052   1.52083   5.71725 
 C                     2.36841   0.65587   6.41333 
 H                     1.85047  -1.2046    5.44229 
 C                     0.65655   2.36783   6.41313 
 H                    -1.20377   1.84974   5.44174 
 C                     1.93785   1.93712   6.76051 
 H                     3.37078   0.32118   6.68611 
 H                     0.32209   3.37029   6.6859 
 H                     2.60643   2.60567   7.30664 
 
 Add virtual bond connecting atoms N49        and H34        Dist= 4.32D+00.
 Add virtual bond connecting atoms N49        and H35        Dist= 4.24D+00.
 Add virtual bond connecting atoms C50        and Br5        Dist= 4.51D+00.
 Iteration  1 RMS(Cart)=  0.17038969 RMS(Int)=  0.68750885
 Iteration  2 RMS(Cart)=  0.15489808 RMS(Int)=  0.67767646
 Iteration  3 RMS(Cart)=  0.12875693 RMS(Int)=  0.67053605
 Iteration  4 RMS(Cart)=  0.09326246 RMS(Int)=  0.66664312
 Iteration  5 RMS(Cart)=  0.08762506 RMS(Int)=  0.66501815
 Iteration  6 RMS(Cart)=  0.08372844 RMS(Int)=  0.66221087
 Iteration  7 RMS(Cart)=  0.08545393 RMS(Int)=  0.65911431
 Iteration  8 RMS(Cart)=  0.05705190 RMS(Int)=  0.65622358
 Iteration  9 RMS(Cart)=  0.06785492 RMS(Int)=  0.65218182
 Iteration 10 RMS(Cart)=  0.02236262 RMS(Int)=  0.64942718
 Iteration 11 RMS(Cart)=  0.01045147 RMS(Int)=  0.64730281
 Iteration 12 RMS(Cart)=  0.00890536 RMS(Int)=  0.64555948
 Iteration 13 RMS(Cart)=  0.00822718 RMS(Int)=  0.64408831
 Iteration 14 RMS(Cart)=  0.00741108 RMS(Int)=  0.64283233
 Iteration 15 RMS(Cart)=  0.00657877 RMS(Int)=  0.64175617
 Iteration 16 RMS(Cart)=  0.00580091 RMS(Int)=  0.64083011
 Iteration 17 RMS(Cart)=  0.00509386 RMS(Int)=  0.64003605
 Iteration 18 RMS(Cart)=  0.00465313 RMS(Int)=  0.63932901
 Iteration 19 RMS(Cart)=  0.00423600 RMS(Int)=  0.63868959
 Iteration 20 RMS(Cart)=  0.00389502 RMS(Int)=  0.63810099
 Iteration 21 RMS(Cart)=  0.00370383 RMS(Int)=  0.63754174
 Iteration 22 RMS(Cart)=  0.00356713 RMS(Int)=  0.63700616
 Iteration 23 RMS(Cart)=  0.00346531 RMS(Int)=  0.63649179
 Iteration 24 RMS(Cart)=  0.00338334 RMS(Int)=  0.63599753
 Iteration 25 RMS(Cart)=  0.00331313 RMS(Int)=  0.63552277
 Iteration 26 RMS(Cart)=  0.00325036 RMS(Int)=  0.63506701
 Iteration 27 RMS(Cart)=  0.00319263 RMS(Int)=  0.63462975
 Iteration 28 RMS(Cart)=  0.00313860 RMS(Int)=  0.63421047
 Iteration 29 RMS(Cart)=  0.00308749 RMS(Int)=  0.63380835
 Iteration 30 RMS(Cart)=  0.00303881 RMS(Int)=  0.63342121
 Iteration 31 RMS(Cart)=  0.00299196 RMS(Int)=  0.63304828
 Iteration 32 RMS(Cart)=  0.00294731 RMS(Int)=  0.63268903
 Iteration 33 RMS(Cart)=  0.00290445 RMS(Int)=  0.63234301
 Iteration 34 RMS(Cart)=  0.00286318 RMS(Int)=  0.63200983
 Iteration 35 RMS(Cart)=  0.00282339 RMS(Int)=  0.63168908
 Iteration 36 RMS(Cart)=  0.00278498 RMS(Int)=  0.63138037
 Iteration 37 RMS(Cart)=  0.00274791 RMS(Int)=  0.63108329
 Iteration 38 RMS(Cart)=  0.00271209 RMS(Int)=  0.63079747
 Iteration 39 RMS(Cart)=  0.00267747 RMS(Int)=  0.63052254
 Iteration 40 RMS(Cart)=  0.00264401 RMS(Int)=  0.63025813
 Iteration 41 RMS(Cart)=  0.00261166 RMS(Int)=  0.63000388
 Iteration 42 RMS(Cart)=  0.00258036 RMS(Int)=  0.62975946
 Iteration 43 RMS(Cart)=  0.00255009 RMS(Int)=  0.62952453
 Iteration 44 RMS(Cart)=  0.00252080 RMS(Int)=  0.62929878
 Iteration 45 RMS(Cart)=  0.00249244 RMS(Int)=  0.62908191
 Iteration 46 RMS(Cart)=  0.00246499 RMS(Int)=  0.62887362
 Iteration 47 RMS(Cart)=  0.00243840 RMS(Int)=  0.62867365
 Iteration 48 RMS(Cart)=  0.00241264 RMS(Int)=  0.62848172
 Iteration 49 RMS(Cart)=  0.00238768 RMS(Int)=  0.62829758
 Iteration 50 RMS(Cart)=  0.00236350 RMS(Int)=  0.62812100
 Iteration 51 RMS(Cart)=  0.00234005 RMS(Int)=  0.62795173
 Iteration 52 RMS(Cart)=  0.00231731 RMS(Int)=  0.62778957
 Iteration 53 RMS(Cart)=  0.00229525 RMS(Int)=  0.62763430
 Iteration 54 RMS(Cart)=  0.00227385 RMS(Int)=  0.62748573
 Iteration 55 RMS(Cart)=  0.00225309 RMS(Int)=  0.62734365
 Iteration 56 RMS(Cart)=  0.00223293 RMS(Int)=  0.62720790
 Iteration 57 RMS(Cart)=  0.00221336 RMS(Int)=  0.62707830
 Iteration 58 RMS(Cart)=  0.00219436 RMS(Int)=  0.62695467
 Iteration 59 RMS(Cart)=  0.00217590 RMS(Int)=  0.62683688
 Iteration 60 RMS(Cart)=  0.00215796 RMS(Int)=  0.62672476
 Iteration 61 RMS(Cart)=  0.00214053 RMS(Int)=  0.62661817
 Iteration 62 RMS(Cart)=  0.00212359 RMS(Int)=  0.62651697
 Iteration 63 RMS(Cart)=  0.00210712 RMS(Int)=  0.62642103
 Iteration 64 RMS(Cart)=  0.00209110 RMS(Int)=  0.62633023
 Iteration 65 RMS(Cart)=  0.00207552 RMS(Int)=  0.62624445
 Iteration 66 RMS(Cart)=  0.00206037 RMS(Int)=  0.62616357
 Iteration 67 RMS(Cart)=  0.00204562 RMS(Int)=  0.62608747
 Iteration 68 RMS(Cart)=  0.00203127 RMS(Int)=  0.62601607
 Iteration 69 RMS(Cart)=  0.00201730 RMS(Int)=  0.62594924
 Iteration 70 RMS(Cart)=  0.00200370 RMS(Int)=  0.62588690
 Iteration 71 RMS(Cart)=  0.00199045 RMS(Int)=  0.62582896
 Iteration 72 RMS(Cart)=  0.00197755 RMS(Int)=  0.62577532
 Iteration 73 RMS(Cart)=  0.00196498 RMS(Int)=  0.62572590
 Iteration 74 RMS(Cart)=  0.00195274 RMS(Int)=  0.62568061
 Iteration 75 RMS(Cart)=  0.00194080 RMS(Int)=  0.62563939
 Iteration 76 RMS(Cart)=  0.00192917 RMS(Int)=  0.62560214
 Iteration 77 RMS(Cart)=  0.00191783 RMS(Int)=  0.62556881
 Iteration 78 RMS(Cart)=  0.00190677 RMS(Int)=  0.62553931
 Iteration 79 RMS(Cart)=  0.00189598 RMS(Int)=  0.62551359
 Iteration 80 RMS(Cart)=  0.00188546 RMS(Int)=  0.62549158
 Iteration 81 RMS(Cart)=  0.00187519 RMS(Int)=  0.62547321
 Iteration 82 RMS(Cart)=  0.00186516 RMS(Int)=  0.62545843
 Iteration 83 RMS(Cart)=  0.00185538 RMS(Int)=  0.62544718
 Iteration 84 RMS(Cart)=  0.00184582 RMS(Int)=  0.62543940
 Iteration 85 RMS(Cart)=  0.00183649 RMS(Int)=  0.62543504
 Iteration 86 RMS(Cart)=  0.00182736 RMS(Int)=  0.62543406
 Iteration 87 RMS(Cart)=  0.00181845 RMS(Int)=  0.62543640
 Iteration 88 RMS(Cart)=  0.00180973 RMS(Int)=  0.62544201
 Iteration 89 RMS(Cart)=  0.00180121 RMS(Int)=  0.62545085
 Iteration 90 RMS(Cart)=  0.00179286 RMS(Int)=  0.62546287
 Iteration 91 RMS(Cart)=  0.00178470 RMS(Int)=  0.62547804
 Iteration 92 RMS(Cart)=  0.00177670 RMS(Int)=  0.62549632
 Iteration 93 RMS(Cart)=  0.00176886 RMS(Int)=  0.62551766
 Iteration 94 RMS(Cart)=  0.00176118 RMS(Int)=  0.62554202
 Iteration 95 RMS(Cart)=  0.00175365 RMS(Int)=  0.62556939
 Iteration 96 RMS(Cart)=  0.00174626 RMS(Int)=  0.62559971
 Iteration 97 RMS(Cart)=  0.00173900 RMS(Int)=  0.62563295
 Iteration 98 RMS(Cart)=  0.00173186 RMS(Int)=  0.62566909
 Iteration 99 RMS(Cart)=  0.00172485 RMS(Int)=  0.62570810
 Iteration100 RMS(Cart)=  0.00171795 RMS(Int)=  0.62574994
 New curvilinear step not converged.
 FormGI is forming the generalized inverse of G from B-inverse, IUseBI=4.
 RedQX1 iteration     1 Try  1 RMS(Cart)=  0.32299670 RMS(Int)=  0.66765756 XScale=  8.77086553
 RedQX1 iteration     1 Try  2 RMS(Cart)=  0.32645041 RMS(Int)=  0.63780996 XScale=  4.32796758
 RedQX1 iteration     1 Try  3 RMS(Cart)=  0.34990816 RMS(Int)=  0.62238225 XScale=  2.83285575
 RedQX1 iteration     1 Try  4 RMS(Cart)=  0.42923488 RMS(Int)=  0.62139840 XScale=  2.05106195
 RedQX1 iteration     1 Try  5 RMS(Cart)=  0.71210453 RMS(Int)=  0.64073100 XScale=  1.48904834
 RedQX1 iteration     1 Try  6 RMS(Cart)=  0.57686847 RMS(Int)=  0.64888930 XScale=  1.29317583
 RedQX1 iteration     2 Try  1 RMS(Cart)=  0.09654343 RMS(Int)=  0.64896356 XScale=  1.27574151
 RedQX1 iteration     2 Try  2 RMS(Cart)=  0.11821955 RMS(Int)=  0.65241290 XScale=  1.24969001
 RedQX1 iteration     2 Try  3 RMS(Cart)=  0.15999186 RMS(Int)=  0.66330561 XScale=  1.20803891
 RedQX1 iteration     2 Try  4 RMS(Cart)=  0.25724541 RMS(Int)=  0.69376426 XScale=  1.13458569
 RedQX1 iteration     2 Try  5 RMS(Cart)=  0.59304162 RMS(Int)=  0.97351367 XScale=  0.84008111
 RedQX1 iteration     3 Try  1 RMS(Cart)=  0.11860832 RMS(Int)=  0.70775951 XScale=  1.10980082
 RedQX1 iteration     3 Try  2 RMS(Cart)=  0.15302203 RMS(Int)=  0.83086969 XScale=  0.95889984
 RedQX1 iteration     4 Try  1 RMS(Cart)=  0.12241763 RMS(Int)=  0.79826402 XScale=  0.98417253
 RedQX1 iteration     5 Try  1 RMS(Cart)=  0.02448353 RMS(Int)=  0.71089820 XScale=  1.10511376
 RedQX1 iteration     5 Try  2 RMS(Cart)=  0.02569847 RMS(Int)=  0.71423091 XScale=  1.10026679
 RedQX1 iteration     5 Try  3 RMS(Cart)=  0.02699485 RMS(Int)=  0.71772466 XScale=  1.09535301
 RedQX1 iteration     5 Try  4 RMS(Cart)=  0.02835555 RMS(Int)=  0.72125827 XScale=  1.09054909
 RedQX1 iteration     5 Try  5 RMS(Cart)=  0.02974281 RMS(Int)=  0.83767638 XScale=  0.95823008
 RedQX1 iteration     6 Try  1 RMS(Cart)=  0.02498396 RMS(Int)=  0.83719292 XScale=  0.95871671
 RedQX1 iteration     7 Try  1 RMS(Cart)=  0.00499679 RMS(Int)=  0.72099479 XScale=  1.08982014
 RedQX1 iteration     7 Try  2 RMS(Cart)=  0.00502715 RMS(Int)=  0.82763963 XScale=  0.96383769
 RedQX1 iteration     8 Try  1 RMS(Cart)=  0.00498693 RMS(Int)=  0.82763194 XScale=  0.96384654
 RedQX1 iteration     9 Try  1 RMS(Cart)=  0.00099739 RMS(Int)=  0.82459207 XScale=  0.96738709
 RedQX1 iteration    10 Try  1 RMS(Cart)=  0.00019948 RMS(Int)=  0.72206295 XScale=  1.08965211
 RedQX1 iteration    10 Try  2 RMS(Cart)=  0.00019999 RMS(Int)=  0.72056571 XScale=  1.08893219
 RedQX1 iteration    10 Try  3 RMS(Cart)=  0.00020010 RMS(Int)=  0.80550188 XScale=  0.97487941
 RedQX1 iteration    11 Try  1 RMS(Cart)=  0.00019997 RMS(Int)=  0.80550012 XScale=  0.97488178
 RedQX1 iteration    12 Try  1 RMS(Cart)=  0.00003999 RMS(Int)=  0.78491476 XScale=  1.00308187
 RedQX1 iteration    12 Try  2 RMS(Cart)=  0.00005639 RMS(Int)=  0.74408232 XScale=  1.03201398
 RedQX1 iteration    12 Try  3 RMS(Cart)=  0.00005005 RMS(Int)=  0.83609613 XScale=  0.96273219
 RedQX1 iteration    13 Try  1 RMS(Cart)=  0.00005004 RMS(Int)=  0.83609187 XScale=  0.96274050
 RedQX1 iteration    14 Try  1 RMS(Cart)=  0.00001001 RMS(Int)=  0.74750783 XScale=  1.02547358
 RedQX1 iteration    14 Try  2 RMS(Cart)=  0.00001024 RMS(Int)=  0.75315347 XScale=  1.01502608
 RedQX1 iteration    14 Try  3 RMS(Cart)=  0.00001061 RMS(Int)=  0.76361948 XScale=  0.99657944
 RedQX1 iteration    15 Try  1 RMS(Cart)=  0.00001061 RMS(Int)=  0.76361912 XScale=  0.99658005
 RedQX1 iteration    16 Try  1 RMS(Cart)=  0.00000212 RMS(Int)=  0.75478013 XScale=  1.01208501
 RedQX1 iteration    16 Try  2 RMS(Cart)=  0.00000214 RMS(Int)=  0.75664282 XScale=  1.00875234
 RedQX1 iteration    16 Try  3 RMS(Cart)=  0.00000217 RMS(Int)=  0.75878931 XScale=  1.00495651
 RedQX1 iteration    16 Try  4 RMS(Cart)=  0.00000219 RMS(Int)=  0.76127786 XScale=  1.00061295
 RedQX1 iteration    16 Try  5 RMS(Cart)=  0.00000222 RMS(Int)=  0.76417840 XScale=  0.99562407
 RedQX1 iteration    17 Try  1 RMS(Cart)=  0.00000222 RMS(Int)=  0.76417837 XScale=  0.99562413
 RedQX1 iteration    18 Try  1 RMS(Cart)=  0.00000044 RMS(Int)=  0.76182785 XScale=  0.99966099
 RedQX1 iteration    18 Try  2 RMS(Cart)=  0.00000045 RMS(Int)=  0.76239539 XScale=  0.99868162
 RedQX1 iteration    19 Try  1 RMS(Cart)=  0.00000045 RMS(Int)=  0.76239539 XScale=  0.99868162
 RedQX1 iteration    20 Try  1 RMS(Cart)=  0.00000009 RMS(Int)=  0.76194015 XScale=  0.99946695
 SLEqS3 Cycle:   214 Max:0.475561E-02 RMS: 139.770     Conv:0.145352E-02
 Iteration  1 RMS(Cart)=  0.03235188 RMS(Int)=  2.20291871
 Iteration  2 RMS(Cart)=  0.31450165 RMS(Int)=  2.13287874
 Iteration  3 RMS(Cart)=  0.31039907 RMS(Int)=  2.06092081
 Iteration  4 RMS(Cart)=  0.29841903 RMS(Int)=  1.99143425
 Iteration  5 RMS(Cart)=  0.26173603 RMS(Int)=  1.92845400
 Iteration  6 RMS(Cart)=  0.12622525 RMS(Int)=  1.89883413
 Iteration  7 RMS(Cart)=  0.19918845 RMS(Int)=  1.84833072
 Iteration  8 RMS(Cart)=  0.08285015 RMS(Int)=  1.82475884
 Iteration  9 RMS(Cart)=  0.01388467 RMS(Int)=  1.82068088
 Iteration 10 RMS(Cart)=  0.01083028 RMS(Int)=  1.81958588
 Iteration 11 RMS(Cart)=  0.01138579 RMS(Int)=  1.81425596
 Iteration 12 RMS(Cart)=  0.00844852 RMS(Int)=  1.81393896
 Iteration 13 RMS(Cart)=  0.01039016 RMS(Int)=  1.80879508
 Iteration 14 RMS(Cart)=  0.00824096 RMS(Int)=  1.80854819
 Iteration 15 RMS(Cart)=  0.00991586 RMS(Int)=  1.80351319
 Iteration 16 RMS(Cart)=  0.00753119 RMS(Int)=  1.80337528
 Iteration 17 RMS(Cart)=  0.00979387 RMS(Int)=  1.79848506
 Iteration 18 RMS(Cart)=  0.00715001 RMS(Int)=  1.79633137
 Iteration 19 RMS(Cart)=  0.00715407 RMS(Int)=  1.79636639
 Iteration 20 RMS(Cart)=  0.00926290 RMS(Int)=  1.79146252
 Iteration 21 RMS(Cart)=  0.00710470 RMS(Int)=  1.79153699
 Iteration 22 RMS(Cart)=  0.00914129 RMS(Int)=  1.78662816
 Iteration 23 RMS(Cart)=  0.00704462 RMS(Int)=  1.78666283
 Iteration 24 RMS(Cart)=  0.00900665 RMS(Int)=  1.78185019
 Iteration 25 RMS(Cart)=  0.00576266 RMS(Int)=  1.78008300
 Iteration 26 RMS(Cart)=  0.00574591 RMS(Int)=  1.78055155
 Iteration 27 RMS(Cart)=  0.00883978 RMS(Int)=  1.77567814
 Iteration 28 RMS(Cart)=  0.00569994 RMS(Int)=  1.77606415
 Iteration 29 RMS(Cart)=  0.00756412 RMS(Int)=  1.77170566
 Iteration 30 RMS(Cart)=  0.00564997 RMS(Int)=  1.76994382
 Iteration 31 RMS(Cart)=  0.00562456 RMS(Int)=  1.77039576
 Iteration 32 RMS(Cart)=  0.00744899 RMS(Int)=  1.77813574
 Iteration 33 RMS(Cart)=  0.00819968 RMS(Int)=  1.77767273
 Iteration 34 RMS(Cart)=  0.00975401 RMS(Int)=  1.77229532
 Iteration 35 RMS(Cart)=  0.00807671 RMS(Int)=  1.77188293
 Iteration 36 RMS(Cart)=  0.01007869 RMS(Int)=  1.76636684
 Iteration 37 RMS(Cart)=  0.00796359 RMS(Int)=  1.76396658
 Iteration 38 RMS(Cart)=  0.01024887 RMS(Int)=  1.75849603
 Iteration 39 RMS(Cart)=  0.00858671 RMS(Int)=  1.75547258
 Iteration 40 RMS(Cart)=  0.00654275 RMS(Int)=  1.75608530
 Iteration 41 RMS(Cart)=  0.00805637 RMS(Int)=  1.75270001
 Iteration 42 RMS(Cart)=  0.00581905 RMS(Int)=  1.75159693
 Iteration 43 RMS(Cart)=  0.00793528 RMS(Int)=  1.74607285
 Iteration 44 RMS(Cart)=  0.00638899 RMS(Int)=  1.75227057
 Iteration 45 RMS(Cart)=  0.00938038 RMS(Int)=  1.74624554
 Iteration 46 RMS(Cart)=  0.00761216 RMS(Int)=  1.74643131
 Iteration 47 RMS(Cart)=  0.00908891 RMS(Int)=  1.74065869
 Iteration 48 RMS(Cart)=  0.00736367 RMS(Int)=  1.73806955
 Iteration 49 RMS(Cart)=  0.00611588 RMS(Int)=  1.73894614
 Iteration 50 RMS(Cart)=  0.00761531 RMS(Int)=  1.73332059
 Iteration 51 RMS(Cart)=  0.00630138 RMS(Int)=  1.73413362
 Iteration 52 RMS(Cart)=  0.00668493 RMS(Int)=  1.73335505
 Iteration 53 RMS(Cart)=  0.02278492 RMS(Int)=  1.73179773
 Iteration 54 RMS(Cart)=  0.01454856 RMS(Int)=  1.72394546
 Iteration 55 RMS(Cart)=  0.01183094 RMS(Int)=  1.71706543
 Iteration 56 RMS(Cart)=  0.01378920 RMS(Int)=  1.71523350
 Iteration 57 RMS(Cart)=  0.01484013 RMS(Int)=  1.70721629
 Iteration 58 RMS(Cart)=  0.01179231 RMS(Int)=  1.70594002
 Iteration 59 RMS(Cart)=  0.01362115 RMS(Int)=  1.69816317
 Iteration 60 RMS(Cart)=  0.01102420 RMS(Int)=  1.69695618
 Iteration 61 RMS(Cart)=  0.01288585 RMS(Int)=  1.68947449
 Iteration 62 RMS(Cart)=  0.01279418 RMS(Int)=  1.68737106
 Iteration 63 RMS(Cart)=  0.01258081 RMS(Int)=  1.68008038
 Iteration 64 RMS(Cart)=  0.01209192 RMS(Int)=  1.67798198
 Iteration 65 RMS(Cart)=  0.01178891 RMS(Int)=  1.67095775
 Iteration 66 RMS(Cart)=  0.00955302 RMS(Int)=  1.67209396
 Iteration 67 RMS(Cart)=  0.01096142 RMS(Int)=  1.67088114
 Iteration 68 RMS(Cart)=  0.01071187 RMS(Int)=  1.66376714
 Iteration 69 RMS(Cart)=  0.01043666 RMS(Int)=  1.66368012
 Iteration 70 RMS(Cart)=  0.00993118 RMS(Int)=  1.65575316
 Iteration 71 RMS(Cart)=  0.01002731 RMS(Int)=  1.65796494
 Iteration 72 RMS(Cart)=  0.00820214 RMS(Int)=  1.65462011
 Iteration 73 RMS(Cart)=  0.00811200 RMS(Int)=  1.64567183
 Iteration 74 RMS(Cart)=  0.01023042 RMS(Int)=  1.64556518
 Iteration 75 RMS(Cart)=  0.01121505 RMS(Int)=  1.63541197
 Iteration 76 RMS(Cart)=  0.01265190 RMS(Int)=  1.63589631
 Iteration 77 RMS(Cart)=  0.01043271 RMS(Int)=  1.62609098
 Iteration 78 RMS(Cart)=  0.01103420 RMS(Int)=  1.62026075
 Iteration 79 RMS(Cart)=  0.01077199 RMS(Int)=  1.61030869
 Iteration 80 RMS(Cart)=  0.00957210 RMS(Int)=  1.61185459
 Iteration 81 RMS(Cart)=  0.00884146 RMS(Int)=  1.60274303
 Iteration 82 RMS(Cart)=  0.00835075 RMS(Int)=  1.60472384
 Iteration 83 RMS(Cart)=  0.00811602 RMS(Int)=  1.59595424
 Iteration 84 RMS(Cart)=  0.00773635 RMS(Int)=  1.59812480
 Iteration 85 RMS(Cart)=  0.00697742 RMS(Int)=  1.58986310
 Iteration 86 RMS(Cart)=  0.00676297 RMS(Int)=  1.59238945
 Iteration 87 RMS(Cart)=  0.00666865 RMS(Int)=  1.58428760
 Iteration 88 RMS(Cart)=  0.00609663 RMS(Int)=  1.58704980
 Iteration 89 RMS(Cart)=  0.00588849 RMS(Int)=  1.57934177
 Iteration 90 RMS(Cart)=  0.00418990 RMS(Int)=  1.58155495
 Iteration 91 RMS(Cart)=  0.00468097 RMS(Int)=  1.57424612
 Iteration 92 RMS(Cart)=  0.00465739 RMS(Int)=  1.57735944
 Iteration 93 RMS(Cart)=  0.00463154 RMS(Int)=  1.57022856
 Iteration 94 RMS(Cart)=  0.00455265 RMS(Int)=  1.57334112
 Iteration 95 RMS(Cart)=  0.00444986 RMS(Int)=  1.56637889
 Iteration 96 RMS(Cart)=  0.00425804 RMS(Int)=  1.56954878
 Iteration 97 RMS(Cart)=  0.00404796 RMS(Int)=  1.56283902
 Iteration 98 RMS(Cart)=  0.00385748 RMS(Int)=  1.56610942
 Iteration 99 RMS(Cart)=  0.00380113 RMS(Int)=  1.55957807
 Iteration100 RMS(Cart)=  0.00364210 RMS(Int)=  1.56286546
 New curvilinear step not converged.
 FormGI is forming the generalized inverse of G from B-inverse, IUseBI=4.
 RedQX1 iteration     1 Try  1 RMS(Cart)=  0.86376398 RMS(Int)=  2.08357308 XScale=  4.50329066
 RedQX1 iteration     1 Try  2 RMS(Cart)=  0.89138289 RMS(Int)=  2.01610560 XScale=  3.06424504
 RedQX1 iteration     1 Try  3 RMS(Cart)=  1.01626772 RMS(Int)=  2.09253025 XScale=  2.02403295
 RedQX1 iteration     1 Try  4 RMS(Cart)=  1.54381700 RMS(Int)=  2.65056021 XScale=  1.24327179
 RedQX1 iteration     1 Try  5 RMS(Cart)=  3.93563118 RMS(Int)=  4.46504371 XScale=  0.65986987
 RedQX1 iteration     2 Try  1 RMS(Cart)=  0.78712624 RMS(Int)=  2.99691111 XScale=  1.07252023
 RedQX1 iteration     2 Try  2 RMS(Cart)=  1.13424656 RMS(Int)=  3.45554680 XScale=  0.91660263
 RedQX1 iteration     3 Try  1 RMS(Cart)=  0.90739725 RMS(Int)=  3.33020027 XScale=  0.94741224
 RedQX1 iteration     4 Try  1 RMS(Cart)=  0.18147945 RMS(Int)=  3.05262468 XScale=  1.04868515
 RedQX1 iteration     4 Try  2 RMS(Cart)=  0.19575177 RMS(Int)=  3.12518262 XScale=  1.02361174
 RedQX1 iteration     4 Try  3 RMS(Cart)=  0.21029943 RMS(Int)=  3.19433108 XScale=  0.99287350
 RedQX1 iteration     5 Try  1 RMS(Cart)=  0.19347547 RMS(Int)=  3.19759296 XScale=  0.99654959
 RedQX1 iteration     6 Try  1 RMS(Cart)=  0.03869509 RMS(Int)=  3.13842578 XScale=  1.01838475
 RedQX1 iteration     6 Try  2 RMS(Cart)=  0.03924531 RMS(Int)=  3.15274161 XScale=  1.01313348
 RedQX1 iteration     6 Try  3 RMS(Cart)=  0.03937870 RMS(Int)=  3.16681803 XScale=  1.00782234
 RedQX1 iteration     6 Try  4 RMS(Cart)=  0.03993298 RMS(Int)=  3.18199670 XScale=  1.00225882
 RedQX1 iteration     6 Try  5 RMS(Cart)=  0.04049210 RMS(Int)=  3.18601398 XScale=  0.99594605
 RedQX1 iteration     7 Try  1 RMS(Cart)=  0.03919636 RMS(Int)=  3.18542653 XScale=  0.99616319
 RedQX1 iteration     8 Try  1 RMS(Cart)=  0.00783927 RMS(Int)=  3.18511999 XScale=  1.00110094
 RedQX1 iteration     8 Try  2 RMS(Cart)=  0.00785962 RMS(Int)=  3.18834066 XScale=  0.99990978
 RedQX1 iteration     8 Try  3 RMS(Cart)=  0.00787982 RMS(Int)=  3.18244889 XScale=  0.99868985
 RedQX1 iteration     9 Try  1 RMS(Cart)=  0.00785461 RMS(Int)=  3.18243808 XScale=  0.99869381
 RedQX1 iteration    10 Try  1 RMS(Cart)=  0.00157092 RMS(Int)=  3.18899796 XScale=  0.99966687
 RedQX1 iteration    10 Try  2 RMS(Cart)=  0.00157172 RMS(Int)=  3.18044079 XScale=  0.99942480
 RedQX1 iteration    10 Try  3 RMS(Cart)=  0.00158435 RMS(Int)=  3.18112078 XScale=  0.99918105
 RedQX1 iteration    10 Try  4 RMS(Cart)=  0.00158512 RMS(Int)=  3.18180845 XScale=  0.99893438
 RedQX1 iteration    11 Try  1 RMS(Cart)=  0.00158360 RMS(Int)=  3.18180778 XScale=  0.99893462
 RedQX1 iteration    12 Try  1 RMS(Cart)=  0.00031672 RMS(Int)=  3.18125761 XScale=  0.99913198
 RedQX1 iteration    12 Try  2 RMS(Cart)=  0.00031675 RMS(Int)=  3.18139476 XScale=  0.99908280
 RedQX1 iteration    12 Try  3 RMS(Cart)=  0.00031678 RMS(Int)=  3.18153223 XScale=  0.99903350
 RedQX1 iteration    12 Try  4 RMS(Cart)=  0.00031681 RMS(Int)=  3.18167001 XScale=  0.99898407
 RedQX1 iteration    13 Try  1 RMS(Cart)=  0.00031675 RMS(Int)=  3.18166998 XScale=  0.99898408
 RedQX1 iteration    14 Try  1 RMS(Cart)=  0.00006335 RMS(Int)=  3.18155976 XScale=  0.99902362
 RedQX1 iteration    14 Try  2 RMS(Cart)=  0.00006335 RMS(Int)=  3.18158730 XScale=  0.99901374
 RedQX1 iteration    14 Try  3 RMS(Cart)=  0.00006335 RMS(Int)=  3.18161485 XScale=  0.99900386
 RedQX1 iteration    14 Try  4 RMS(Cart)=  0.00006335 RMS(Int)=  3.18164242 XScale=  0.99899397
 RedQX1 iteration    15 Try  1 RMS(Cart)=  0.00006335 RMS(Int)=  3.18164241 XScale=  0.99899397
 RedQX1 iteration    16 Try  1 RMS(Cart)=  0.00001267 RMS(Int)=  3.18162036 XScale=  0.99900188
 RedQX1 iteration    16 Try  2 RMS(Cart)=  0.00001267 RMS(Int)=  3.18162587 XScale=  0.99899990
 RedQX1 iteration    17 Try  1 RMS(Cart)=  0.00001267 RMS(Int)=  3.18162587 XScale=  0.99899990
 RedQX1 iteration    18 Try  1 RMS(Cart)=  0.00000253 RMS(Int)=  3.18162146 XScale=  0.99900149
 RedQX1 iteration    18 Try  2 RMS(Cart)=  0.00000253 RMS(Int)=  3.18162257 XScale=  0.99900109
 RedQX1 iteration    18 Try  3 RMS(Cart)=  0.00000253 RMS(Int)=  3.18162367 XScale=  0.99900070
 RedQX1 iteration    18 Try  4 RMS(Cart)=  0.00000253 RMS(Int)=  3.18162477 XScale=  0.99900030
 RedQX1 iteration    18 Try  5 RMS(Cart)=  0.00000253 RMS(Int)=  3.18162587 XScale=  0.99899990
 RedQX1 iteration    19 Try  1 RMS(Cart)=  0.00000253 RMS(Int)=  3.18162587 XScale=  0.99899990
 RedQX1 iteration    20 Try  1 RMS(Cart)=  0.00000051 RMS(Int)=  3.18162499 XScale=  0.99900022
 RedQX1 iteration    20 Try  2 RMS(Cart)=  0.00000051 RMS(Int)=  3.18162521 XScale=  0.99900014
 RedQX1 iteration    20 Try  3 RMS(Cart)=  0.00000051 RMS(Int)=  3.18162543 XScale=  0.99900006
 RedQX1 iteration    20 Try  4 RMS(Cart)=  0.00000051 RMS(Int)=  3.18162565 XScale=  0.99899998
 Old curvilinear step not converged, using linear step:
 SCX= 2.70D+01 DXMaxT= 4.94-324 SCLim= 0.00D+00 Fact= 0.00D+00
 RedCar/ORedCr failed for GTrans.
 Error termination via Lnk1e in /home1/apps/gaussian/16rA.03/g16/l101.exe at Sat Oct 22 00:25:17 2022.
 Job cpu time:       0 days  0 hours  0 minutes 29.1 seconds.
 Elapsed time:       0 days  0 hours  0 minutes  4.0 seconds.
 File lengths (MBytes):  RWF=      6 Int=      0 D2E=      0 Chk=      1 Scr=      1
