 Entering Gaussian System, Link 0=g16
 Initial command:
 /home1/apps/gaussian/16rA.03/g16/l1.exe "/tmp/Gau-62581.inp" -scrdir="/tmp/"
 Entering Link 1 = /home1/apps/gaussian/16rA.03/g16/l1.exe PID=     62584.
  
 Copyright (c) 1988,1990,1992,1993,1995,1998,2003,2009,2016,
            Gaussian, Inc.  All Rights Reserved.
  
 This is part of the Gaussian(R) 16 program.  It is based on
 the Gaussian(R) 09 system (copyright 2009, Gaussian, Inc.),
 the Gaussian(R) 03 system (copyright 2003, Gaussian, Inc.),
 the Gaussian(R) 98 system (copyright 1998, Gaussian, Inc.),
 the Gaussian(R) 94 system (copyright 1995, Gaussian, Inc.),
 the Gaussian 92(TM) system (copyright 1992, Gaussian, Inc.),
 the Gaussian 90(TM) system (copyright 1990, Gaussian, Inc.),
 the Gaussian 88(TM) system (copyright 1988, Gaussian, Inc.),
 the Gaussian 86(TM) system (copyright 1986, Carnegie Mellon
 University), and the Gaussian 82(TM) system (copyright 1983,
 Carnegie Mellon University). Gaussian is a federally registered
 trademark of Gaussian, Inc.
  
 This software contains proprietary and confidential information,
 including trade secrets, belonging to Gaussian, Inc.
  
 This software is provided under written license and may be
 used, copied, transmitted, or stored only in accord with that
 written license.
  
 The following legend is applicable only to US Government
 contracts under FAR:
  
                    RESTRICTED RIGHTS LEGEND
  
 Use, reproduction and disclosure by the US Government is
 subject to restrictions as set forth in subparagraphs (a)
 and (c) of the Commercial Computer Software - Restricted
 Rights clause in FAR 52.227-19.
  
 Gaussian, Inc.
 340 Quinnipiac St., Bldg. 40, Wallingford CT 06492
  
  
 ---------------------------------------------------------------
 Warning -- This program may not be used in any manner that
 competes with the business of Gaussian, Inc. or will provide
 assistance to any competitor of Gaussian, Inc.  The licensee
 of this program is prohibited from giving any competitor of
 Gaussian, Inc. access to this program.  By using this program,
 the user acknowledges that Gaussian, Inc. is engaged in the
 business of creating and licensing software in the field of
 computational chemistry and represents and warrants to the
 licensee that it is not a competitor of Gaussian, Inc. and that
 it will not use this program in any manner prohibited above.
 ---------------------------------------------------------------
  

 Cite this work as:
 Gaussian 16, Revision A.03,
 M. J. Frisch, G. W. Trucks, H. B. Schlegel, G. E. Scuseria, 
 M. A. Robb, J. R. Cheeseman, G. Scalmani, V. Barone, 
 G. A. Petersson, H. Nakatsuji, X. Li, M. Caricato, A. V. Marenich, 
 J. Bloino, B. G. Janesko, R. Gomperts, B. Mennucci, H. P. Hratchian, 
 J. V. Ortiz, A. F. Izmaylov, J. L. Sonnenberg, D. Williams-Young, 
 F. Ding, F. Lipparini, F. Egidi, J. Goings, B. Peng, A. Petrone, 
 T. Henderson, D. Ranasinghe, V. G. Zakrzewski, J. Gao, N. Rega, 
 G. Zheng, W. Liang, M. Hada, M. Ehara, K. Toyota, R. Fukuda, 
 J. Hasegawa, M. Ishida, T. Nakajima, Y. Honda, O. Kitao, H. Nakai, 
 T. Vreven, K. Throssell, J. A. Montgomery, Jr., J. E. Peralta, 
 F. Ogliaro, M. J. Bearpark, J. J. Heyd, E. N. Brothers, K. N. Kudin, 
 V. N. Staroverov, T. A. Keith, R. Kobayashi, J. Normand, 
 K. Raghavachari, A. P. Rendell, J. C. Burant, S. S. Iyengar, 
 J. Tomasi, M. Cossi, J. M. Millam, M. Klene, C. Adamo, R. Cammi, 
 J. W. Ochterski, R. L. Martin, K. Morokuma, O. Farkas, 
 J. B. Foresman, and D. J. Fox, Gaussian, Inc., Wallingford CT, 2016.
 
 ******************************************
 Gaussian 16:  ES64L-G16RevA.03 25-Dec-2016
                13-Dec-2022 
 ******************************************
 %Chk=checkpoint.chk
 %NProcShared=12
 Will use up to   12 processors via shared memory.
 ---------------------------------------------------------------
 # wB97XD Gen Opt=(QST3, Restart) SCRF=(Solvent=TetraHydroFuran)
 ---------------------------------------------------------------
 1/5=1,18=20,26=3,27=203,35=1/3(2);
 2/9=110/2;
 99//99;
 2/9=110/2;
 3/5=7,6=1,11=2,25=1,30=1,70=2205,71=1,72=20,74=-58,82=7/1,2,3;
 4/5=5,16=3,69=1/1;
 5/5=2,38=5,53=20/2;
 7//1,2,3,16;
 1/5=1,18=20,26=3,27=203/3(-5);
 2/9=110/2;
 6/7=2,8=2,9=2,10=2,19=2,28=1/1;
 99/9=1/99;

 GradGradGradGradGradGradGradGradGradGradGradGradGradGradGradGradGradGrad
 Berny optimization.
 Restoring state from the checkpoint file "checkpoint.chk".
 ONIOM results not found on unit 2.
 Title:  Mn Transition State Reactant
 Route:  # wB97XD Gen Opt=(QST3) SCRF=(Solvent=TetraHydroFuran)
 FormGI is forming the generalized inverse of G from B-inverse, IUseBI=4.
 Internal  Forces:  Max     0.001091090 RMS     0.000205652
 Search for a saddle point.
 Step number 134 out of a maximum of  366
 All quantities printed in internal units (Hartrees-Bohrs-Radians)
 Update second derivatives using D2CorX and points  133  134
 ITU=  0  0  0  0  0  0  0  0  0  0  0  0  0  0  0  0  0  0  0  0
 ITU=  0  0  0  0  0  0  0  0  0  0  0  0  0  0  0  0  0  0  0  0
 ITU=  0  0  0  0  0  0  0  0  0  0  0  0  0  0  0  0  0  0  0  0
 ITU=  0  0  0  0  0  0  0  0  0  0  0  0  0  0  0  0  0  0  0  0
 ITU=  0  0  0  0  0  0  0  0  0  0  0  0  0  0  0  0  0  0  0  0
     Eigenvalues ---   -0.00578   0.00221   0.00272   0.00411   0.00875
     Eigenvalues ---    0.00921   0.01181   0.01239   0.01336   0.01539
     Eigenvalues ---    0.01632   0.01722   0.01736   0.01794   0.01818
     Eigenvalues ---    0.01858   0.01903   0.01913   0.01976   0.01986
     Eigenvalues ---    0.02011   0.02025   0.02081   0.02115   0.02148
     Eigenvalues ---    0.02152   0.02153   0.02170   0.02173   0.02179
     Eigenvalues ---    0.02179   0.02182   0.02184   0.02190   0.02198
     Eigenvalues ---    0.02200   0.02209   0.02225   0.02249   0.02286
     Eigenvalues ---    0.02358   0.02363   0.02394   0.02522   0.02547
     Eigenvalues ---    0.02667   0.02781   0.03145   0.03477   0.03832
     Eigenvalues ---    0.04039   0.04088   0.04198   0.04673   0.04942
     Eigenvalues ---    0.05063   0.05333   0.05892   0.06075   0.07207
     Eigenvalues ---    0.07296   0.08081   0.08479   0.08741   0.09116
     Eigenvalues ---    0.09612   0.09940   0.10385   0.11641   0.12582
     Eigenvalues ---    0.13006   0.13664   0.14538   0.15969   0.15996
     Eigenvalues ---    0.15998   0.15998   0.15999   0.15999   0.16000
     Eigenvalues ---    0.16000   0.16001   0.16001   0.16003   0.16004
     Eigenvalues ---    0.16010   0.16017   0.16029   0.16053   0.16072
     Eigenvalues ---    0.16172   0.17887   0.18171   0.19101   0.21343
     Eigenvalues ---    0.21432   0.21464   0.21939   0.22004   0.22012
     Eigenvalues ---    0.22114   0.22119   0.22171   0.22453   0.22867
     Eigenvalues ---    0.23304   0.23427   0.23520   0.23678   0.23765
     Eigenvalues ---    0.23786   0.23975   0.24733   0.24962   0.25197
     Eigenvalues ---    0.25303   0.26624   0.26806   0.27670   0.28108
     Eigenvalues ---    0.31203   0.32944   0.33578   0.33964   0.34381
     Eigenvalues ---    0.34449   0.34452   0.34463   0.34468   0.34482
     Eigenvalues ---    0.34496   0.34498   0.34533   0.34538   0.34540
     Eigenvalues ---    0.34540   0.34577   0.34607   0.34659   0.34773
     Eigenvalues ---    0.34883   0.35133   0.38383   0.38637   0.39820
     Eigenvalues ---    0.39938   0.40716   0.41521   0.41702   0.41793
     Eigenvalues ---    0.42136   0.43439   0.43759   0.44245   0.44918
     Eigenvalues ---    0.45177   0.45898   0.45938   0.45953   0.45961
     Eigenvalues ---    0.46153   0.46271   0.46413   0.46510   0.46888
     Eigenvalues ---    0.46896   0.46921   0.47131   0.47263   0.54042
     Eigenvalues ---    0.54706   0.56004   0.57058   1.26577   1.31837
     Eigenvalues ---    1.35615   1.357201000.000001000.000001000.00000
     Eigenvalues --- 1000.000001000.000001000.000001000.000001000.00000
     Eigenvalues --- 1000.000001000.000001000.000001000.000001000.00000
     Eigenvalues --- 1000.000001000.000001000.000001000.000001000.00000
     Eigenvalues --- 1000.000001000.000001000.000001000.000001000.00000
     Eigenvalues --- 1000.000001000.000001000.000001000.000001000.00000
     Eigenvalues --- 1000.000001000.000001000.000001000.000001000.00000
     Eigenvalues --- 1000.000001000.000001000.000001000.000001000.00000
     Eigenvalues --- 1000.000001000.000001000.000001000.000001000.00000
     Eigenvalues --- 1000.000001000.000001000.000001000.000001000.00000
     Eigenvalues --- 1000.000001000.000001000.000001000.000001000.00000
     Eigenvalues --- 1000.000001000.000001000.000001000.000001000.00000
     Eigenvalues --- 1000.000001000.000001000.000001000.000001000.00000
     Eigenvalues --- 1000.000001000.000001000.000001000.000001000.00000
     Eigenvalues --- 1000.000001000.000001000.000001000.000001000.00000
     Eigenvalues --- 1000.000001000.000001000.000001000.000001000.00000
     Eigenvalues --- 1000.000001000.000001000.000001000.000001000.00000
     Eigenvalues --- 1000.000001000.000001000.000001000.000001000.00000
     Eigenvalues --- 1000.000001000.000001000.000001000.000001000.00000
     Eigenvalues --- 1000.000001000.000001000.000001000.000001000.00000
     Eigenvalues --- 1000.000001000.000001000.000001000.000001000.00000
     Eigenvalues --- 1000.000001000.000001000.000001000.000001000.00000
     Eigenvalues --- 1000.000001000.000001000.000001000.000001000.00000
     Eigenvalues --- 1000.000001000.000001000.000001000.000001000.00000
     Eigenvalues --- 1000.000001000.000001000.000001000.000001000.00000
     Eigenvalues --- 1000.000001000.000001000.000001000.000001000.00000
     Eigenvalues --- 1000.000001000.000001000.000001000.000001000.00000
     Eigenvalues --- 1000.000001000.000001000.000001000.000001000.00000
     Eigenvalues --- 1000.000001000.000001000.000001000.000001000.00000
     Eigenvalues --- 1000.000001000.000001000.000001000.000001000.00000
     Eigenvalues --- 1000.000001000.000001000.000001000.000001000.00000
     Eigenvalues --- 1000.000001000.000001000.000001000.000001000.00000
     Eigenvalues --- 1000.000001000.000001000.000001000.000001000.00000
     Eigenvalues --- 1000.000001000.000001000.000001000.000001000.00000
     Eigenvalues --- 1000.000001000.000001000.000001000.000001000.00000
     Eigenvalues --- 1000.000001000.000001000.000001000.000001000.00000
     Eigenvalues --- 1000.000001000.000001000.000001000.000001000.00000
     Eigenvalues --- 1000.000001000.000001000.000001000.000001000.00000
     Eigenvalues --- 1000.000001000.000001000.000001000.000001000.00000
     Eigenvalues --- 1000.000001000.000001000.00000
 Eigenvectors required to have negative eigenvalues:
                          R5        R7        R30       A5        D19
   1                    0.73375   0.38795  -0.12899   0.12581   0.12541
                          A7        A15       D21       D90       A23
   1                    0.11302   0.10916   0.10754   0.10592  -0.10310
 QST in optimization variable space.
                        Tangent   TS vect  // Eig F  Eigenval
   1         R1        -0.00076   0.00381   0.00139  -0.00578
   2         R2         0.00027  -0.00547  -0.00005   0.00221
   3         R3        -0.00470  -0.00046   0.00034   0.00272
   4         R4        -0.01408  -0.01517   0.00005   0.00411
   5         R5         0.41661   0.73375   0.00014   0.00875
   6         R6        -0.02631  -0.02922   0.00028   0.00921
   7         R7        -0.13377   0.38795   0.00021   0.01181
   8         R8         0.00033   0.00022  -0.00006   0.01239
   9         R9         0.00007   0.00067   0.00001   0.01336
  10         R10        0.00020  -0.00006  -0.00013   0.01539
  11         R11        0.00243   0.00104  -0.00023   0.01632
  12         R12       -0.00535   0.00089   0.00017   0.01722
  13         R13       -0.00153   0.00104   0.00001   0.01736
  14         R14       -0.00039   0.00002   0.00009   0.01794
  15         R15        0.00216   0.00030  -0.00002   0.01818
  16         R16       -0.00010   0.00006  -0.00018   0.01858
  17         R17       -0.00439   0.00052   0.00002   0.01903
  18         R18       -0.00461   0.00062  -0.00007   0.01913
  19         R19       -0.00021   0.00110  -0.00007   0.01976
  20         R20        0.01981  -0.00115  -0.00002   0.01986
  21         R21        0.02002  -0.00046  -0.00004   0.02011
  22         R22       -0.00563  -0.00027   0.00013   0.02025
  23         R23       -0.01830  -0.00231   0.00002   0.02081
  24         R24       -0.00107  -0.00051  -0.00005   0.02115
  25         R25       -0.00032   0.00011  -0.00001   0.02148
  26         R26       -0.00012  -0.00012   0.00003   0.02152
  27         R27        0.00371   0.00082  -0.00000   0.02153
  28         R28       -0.01013   0.00023  -0.00000   0.02170
  29         R29        0.00111   0.00178   0.00000   0.02173
  30         R30       -0.33880  -0.12899   0.00001   0.02179
  31         R31        0.48032  -0.03648   0.00000   0.02179
  32         R32       -0.02721  -0.00184  -0.00001   0.02182
  33         R33       -0.00201   0.00243   0.00001   0.02184
  34         R34        0.00087  -0.00235  -0.00004   0.02190
  35         R35       -0.02376  -0.00078  -0.00000   0.02198
  36         R36       -0.01621   0.00015   0.00000   0.02200
  37         R37        0.00362   0.00139  -0.00002   0.02209
  38         R38       -0.00010   0.00033  -0.00004   0.02225
  39         R39        0.00047   0.00037   0.00001   0.02249
  40         R40       -0.00001   0.00023   0.00007   0.02286
  41         R41        0.00184  -0.00597   0.00007   0.02358
  42         R42        0.00314  -0.00447   0.00002   0.02363
  43         R43        0.00145   0.00183   0.00001   0.02394
  44         R44       -0.00013  -0.00050   0.00008   0.02522
  45         R45        0.00108   0.00253   0.00035   0.02547
  46         R46       -0.00009  -0.00060  -0.00021   0.02667
  47         R47        0.00373  -0.00094   0.00001   0.02781
  48         R48        0.00025   0.00144   0.00017   0.03145
  49         R49       -0.00011  -0.00006   0.00026   0.03477
  50         R50        0.00029   0.00074   0.00018   0.03832
  51         R51       -0.00011   0.00005   0.00003   0.04039
  52         R52        0.00006   0.00007   0.00061   0.04088
  53         R53       -0.00011   0.00020  -0.00013   0.04198
  54         R54        0.00024  -0.00110   0.00018   0.04673
  55         R55       -0.00044  -0.00109   0.00006   0.04942
  56         R56        0.00238  -0.00080   0.00066   0.05063
  57         R57        0.00014  -0.00009  -0.00035   0.05333
  58         R58        0.00012   0.00039  -0.00077   0.05892
  59         R59       -0.00011   0.00006   0.00003   0.06075
  60         R60       -0.00005   0.00079  -0.00094   0.07207
  61         R61       -0.00012   0.00000  -0.00029   0.07296
  62         R62       -0.00014  -0.00089   0.00011   0.08081
  63         R63       -0.00009   0.00018  -0.00163   0.08479
  64         R64       -0.00127   0.00071  -0.00046   0.08741
  65         R65       -0.00119   0.00018  -0.00033   0.09116
  66         R66       -0.00022   0.00316  -0.00031   0.09612
  67         R67        0.00511  -0.00144   0.00083   0.09940
  68         R68       -0.00018   0.00001  -0.00015   0.10385
  69         R69       -0.00014   0.00026   0.00010   0.11641
  70         A1         0.02648   0.00245   0.00061   0.12582
  71         A2         0.00620  -0.01665   0.00080   0.13006
  72         A3        -0.02482   0.01325   0.00050   0.13664
  73         A4         0.02547  -0.02714  -0.00079   0.14538
  74         A5         0.05323   0.12581   0.00060   0.15969
  75         A6         0.00429   0.00409   0.00003   0.15996
  76         A7         0.07009   0.11302  -0.00003   0.15998
  77         A8        -0.00546   0.03174  -0.00003   0.15998
  78         A9        -0.05131   0.01080   0.00006   0.15999
  79         A10        0.09770   0.02916   0.00013   0.15999
  80         A11        0.03078   0.00655   0.00001   0.16000
  81         A12       -0.00660  -0.08173  -0.00008   0.16000
  82         A13        0.03266   0.03279  -0.00000   0.16001
  83         A14        0.01923  -0.01007  -0.00004   0.16001
  84         A15        0.05943   0.10916  -0.00014   0.16003
  85         A16        0.10208   0.06812   0.00011   0.16004
  86         A17        0.01209   0.04935  -0.00004   0.16010
  87         A18        0.07629   0.09637   0.00000   0.16017
  88         A19        0.02015   0.03109  -0.00036   0.16029
  89         A20       -0.06575  -0.10163  -0.00029   0.16053
  90         A21        0.01741  -0.02389  -0.00049   0.16072
  91         A22       -0.10732  -0.08413   0.00072   0.16172
  92         A23       -0.10674  -0.10310   0.00059   0.17887
  93         A24       -0.04649  -0.10082   0.00034   0.18171
  94         A25       -0.00635   0.00636   0.00006   0.19101
  95         A26       -0.00690   0.00995   0.00021   0.21343
  96         A27        0.00357  -0.02697   0.00025   0.21432
  97         A28        0.00276  -0.02442   0.00019   0.21464
  98         A29        0.00482  -0.01824   0.00025   0.21939
  99         A30       -0.00419  -0.05117   0.00001   0.22004
 100         A31       -0.00228   0.00604   0.00043   0.22012
 101         A32        0.00167  -0.00763   0.00017   0.22114
 102         A33       -0.02736  -0.01443  -0.00006   0.22119
 103         A34        0.02690   0.01451   0.00011   0.22171
 104         A35        0.00041   0.00050  -0.00001   0.22453
 105         A36       -0.00278   0.00413  -0.00020   0.22867
 106         A37        0.00680   0.00047  -0.00016   0.23304
 107         A38       -0.00403  -0.00451   0.00037   0.23427
 108         A39        0.00064   0.00009  -0.00028   0.23520
 109         A40       -0.00114   0.00056  -0.00024   0.23678
 110         A41        0.00049  -0.00079  -0.00008   0.23765
 111         A42        0.00548   0.00101   0.00018   0.23786
 112         A43       -0.00270  -0.00108   0.00012   0.23975
 113         A44       -0.00276  -0.00001  -0.00006   0.24733
 114         A45       -0.04061  -0.01748  -0.00031   0.24962
 115         A46       -0.08768   0.03612   0.00010   0.25197
 116         A47        0.06449   0.01482   0.00004   0.25303
 117         A48       -0.03083   0.03857  -0.00020   0.26624
 118         A49       -0.05093   0.03562  -0.00020   0.26806
 119         A50       -0.09571  -0.00761   0.00003   0.27670
 120         A51       -0.01183   0.00487  -0.00008   0.28108
 121         A52       -0.01285  -0.00415  -0.00017   0.31203
 122         A53        0.02470  -0.00045  -0.00034   0.32944
 123         A54       -0.01172   0.00010   0.00017   0.33578
 124         A55        0.00595  -0.00127   0.00037   0.33964
 125         A56        0.00578   0.00116  -0.00022   0.34381
 126         A57        0.00138  -0.00008  -0.00001   0.34449
 127         A58       -0.00293   0.00084   0.00002   0.34452
 128         A59        0.00154  -0.00076  -0.00000   0.34463
 129         A60        0.01894   0.00399   0.00002   0.34468
 130         A61       -0.01332   0.00055   0.00001   0.34482
 131         A62       -0.00557  -0.00455  -0.00001   0.34496
 132         A63        0.02845   0.09614  -0.00000   0.34498
 133         A64       -0.03066   0.05995   0.00000   0.34533
 134         A65       -0.00517  -0.02432  -0.00000   0.34538
 135         A66        0.00211   0.02091  -0.00000   0.34540
 136         A67        0.00288   0.00172   0.00001   0.34540
 137         A68        0.03717   0.00175  -0.00004   0.34577
 138         A69        0.01068  -0.00152  -0.00009   0.34607
 139         A70       -0.04808  -0.00034   0.00006   0.34659
 140         A71       -0.01150   0.00052  -0.00002   0.34773
 141         A72        0.00574   0.00035  -0.00004   0.34883
 142         A73        0.00569  -0.00092   0.00001   0.35133
 143         A74       -0.08723   0.05128  -0.00002   0.38383
 144         A75       -0.00767  -0.00057  -0.00070   0.38637
 145         A76        0.00444   0.00529  -0.00020   0.39820
 146         A77        0.00323  -0.00479  -0.00004   0.39938
 147         A78        0.00028   0.00174   0.00019   0.40716
 148         A79       -0.00119  -0.00061   0.00008   0.41521
 149         A80        0.00076  -0.00115   0.00008   0.41702
 150         A81        0.00548   0.00202  -0.00008   0.41793
 151         A82        0.00529   0.00455   0.00004   0.42136
 152         A83       -0.00402  -0.00078   0.00003   0.43439
 153         A84        0.00118   0.00384   0.00028   0.43759
 154         A85        0.00286  -0.00287   0.00005   0.44245
 155         A86        0.00029   0.01161   0.00011   0.44918
 156         A87        0.00034  -0.01037  -0.00033   0.45177
 157         A88       -0.00064  -0.00138   0.00004   0.45898
 158         A89        0.00010  -0.00152   0.00011   0.45938
 159         A90        0.00006   0.00088  -0.00011   0.45953
 160         A91       -0.00017   0.00061  -0.00001   0.45961
 161         A92        0.00054   0.00183   0.00000   0.46153
 162         A93       -0.00032  -0.00031  -0.00023   0.46271
 163         A94       -0.00022  -0.00146   0.00013   0.46413
 164         A95        0.00011  -0.00047  -0.00004   0.46510
 165         A96       -0.00010   0.00016   0.00001   0.46888
 166         A97       -0.00002   0.00027  -0.00003   0.46896
 167         A98        0.00033   0.00097  -0.00007   0.46921
 168         A99       -0.00043   0.00113   0.00006   0.47131
 169         A100       0.00003  -0.00253   0.00004   0.47263
 170         A101       0.00250  -0.00788   0.00001   0.54042
 171         A102      -0.00252   0.00321  -0.00043   0.54706
 172         A103      -0.00017   0.00414  -0.00026   0.56004
 173         A104      -0.00197   0.00406   0.00020   0.57058
 174         A105       0.00305  -0.00661  -0.00058   1.26577
 175         A106      -0.00117   0.00178   0.00013   1.31837
 176         A107      -0.00071   0.00010   0.00017   1.35615
 177         A108       0.00009   0.00169  -0.00019   1.35720
 178         A109       0.00059  -0.00199  -0.000001000.00000
 179         A110       0.00018   0.00030  -0.000001000.00000
 180         A111      -0.00003   0.00057  -0.000001000.00000
 181         A112      -0.00016  -0.00091   0.000001000.00000
 182         A113       0.00003   0.00124   0.000001000.00000
 183         A114      -0.00014  -0.00107   0.000001000.00000
 184         A115       0.00011  -0.00018  -0.000001000.00000
 185         A116      -0.00022  -0.00234  -0.000001000.00000
 186         A117      -0.00007   0.00173   0.000001000.00000
 187         A118       0.00027   0.00069  -0.000001000.00000
 188         A119       0.00053   0.00071   0.000001000.00000
 189         A120      -0.00141  -0.00768   0.000001000.00000
 190         A121       0.00091   0.00688   0.000001000.00000
 191         A122       0.01247  -0.00214  -0.000001000.00000
 192         A123      -0.00282   0.00243  -0.000001000.00000
 193         A124      -0.00962  -0.00014   0.000001000.00000
 194         A125       0.00085  -0.00422   0.000001000.00000
 195         A126      -0.00042   0.00248   0.000001000.00000
 196         A127      -0.00043   0.00180   0.000001000.00000
 197         A128       0.00288  -0.00133  -0.000001000.00000
 198         A129      -0.00134   0.00087   0.000001000.00000
 199         A130      -0.00154   0.00046  -0.000001000.00000
 200         A131       0.00012   0.00029  -0.000001000.00000
 201         A132       0.00002  -0.00091   0.000001000.00000
 202         A133      -0.00015   0.00061  -0.000001000.00000
 203         D1        -0.01409   0.02392   0.000001000.00000
 204         D2        -0.01534   0.03946  -0.000001000.00000
 205         D3        -0.00293  -0.00925  -0.000001000.00000
 206         D4        -0.00418   0.00629  -0.000001000.00000
 207         D5         0.11123   0.06109  -0.000001000.00000
 208         D6         0.10997   0.07662   0.000001000.00000
 209         D7        -0.01790  -0.05583   0.000001000.00000
 210         D8        -0.01915  -0.04030   0.000001000.00000
 211         D9         0.00971   0.01858  -0.000001000.00000
 212         D10        0.00845   0.03411   0.000001000.00000
 213         D11        0.17077   0.05419   0.000001000.00000
 214         D12        0.22680   0.03674  -0.000001000.00000
 215         D13        0.00471  -0.00474  -0.000001000.00000
 216         D14        0.06074  -0.02219  -0.000001000.00000
 217         D15        0.23233   0.02694   0.000001000.00000
 218         D16        0.28836   0.00949  -0.000001000.00000
 219         D17        0.01440  -0.06730  -0.000001000.00000
 220         D18        0.07043  -0.08475  -0.000001000.00000
 221         D19        0.00064   0.12541   0.000001000.00000
 222         D20       -0.00516   0.06785   0.000001000.00000
 223         D21        0.00689   0.10754  -0.000001000.00000
 224         D22        0.00108   0.04998   0.000001000.00000
 225         D23        0.02840   0.09741   0.000001000.00000
 226         D24        0.02259   0.03985  -0.000001000.00000
 227         D25       -0.06656  -0.01916   0.000001000.00000
 228         D26       -0.07236  -0.07672   0.000001000.00000
 229         D27       -0.07902   0.00635  -0.000001000.00000
 230         D28       -0.08482  -0.05121   0.000001000.00000
 231         D29       -0.00080   0.04843  -0.000001000.00000
 232         D30        0.00070   0.04403  -0.000001000.00000
 233         D31       -0.00018   0.03259  -0.000001000.00000
 234         D32        0.00132   0.02819   0.000001000.00000
 235         D33       -0.00099  -0.04262   0.000001000.00000
 236         D34       -0.00139  -0.03545   0.000001000.00000
 237         D35       -0.00296  -0.02856   0.000001000.00000
 238         D36       -0.00335  -0.02139   0.000001000.00000
 239         D37       -0.00075  -0.00427  -0.000001000.00000
 240         D38        0.00123   0.01270  -0.000001000.00000
 241         D39       -0.00161   0.00371  -0.000001000.00000
 242         D40        0.00036   0.02068   0.000001000.00000
 243         D41        0.00273   0.00243   0.000001000.00000
 244         D42        0.00314  -0.00469   0.000001000.00000
 245         D43        0.00190   0.01023  -0.000001000.00000
 246         D44        0.00231   0.00311  -0.000001000.00000
 247         D45       -0.00309  -0.01713  -0.000001000.00000
 248         D46       -0.00446  -0.03648   0.000001000.00000
 249         D47       -0.00113  -0.00025   0.000001000.00000
 250         D48       -0.00250  -0.01960   0.000001000.00000
 251         D49        0.00311  -0.00994   0.000001000.00000
 252         D50        0.00444   0.00886  -0.000001000.00000
 253         D51        0.00160  -0.00548  -0.000001000.00000
 254         D52        0.00292   0.01333   0.000001000.00000
 255         D53        0.01141  -0.02435   0.000001000.00000
 256         D54        0.00550  -0.02320   0.000001000.00000
 257         D55        0.01292  -0.00246   0.000001000.00000
 258         D56        0.00701  -0.00131  -0.000001000.00000
 259         D57       -0.00995   0.01858  -0.000001000.00000
 260         D58       -0.01772   0.01955   0.000001000.00000
 261         D59       -0.01147  -0.00333  -0.000001000.00000
 262         D60       -0.01924  -0.00236   0.000001000.00000
 263         D61       -0.00371   0.00202   0.000001000.00000
 264         D62       -0.00022   0.00265   0.000001000.00000
 265         D63        0.00225   0.00086  -0.000001000.00000
 266         D64        0.00573   0.00149  -0.000001000.00000
 267         D65       -0.00574   0.00198  -0.000001000.00000
 268         D66       -0.00339  -0.00114  -0.000001000.00000
 269         D67       -0.00224   0.00261  -0.000001000.00000
 270         D68        0.00011  -0.00051  -0.000001000.00000
 271         D69        0.09642  -0.02440  -0.000001000.00000
 272         D70        0.05702  -0.03746  -0.000001000.00000
 273         D71        0.10429  -0.02536   0.000001000.00000
 274         D72        0.06489  -0.03842  -0.000001000.00000
 275         D73        0.01288   0.00699  -0.000001000.00000
 276         D74        0.00750   0.00441  -0.000001000.00000
 277         D75        0.00486   0.00793   0.000001000.00000
 278         D76       -0.00052   0.00536  -0.000001000.00000
 279         D77       -0.11135  -0.02581  -0.000001000.00000
 280         D78       -0.01009  -0.06018   0.000001000.00000
 281         D79        0.00492  -0.05892   0.000001000.00000
 282         D80       -0.00461  -0.00631   0.000001000.00000
 283         D81        0.01040  -0.00506  -0.000001000.00000
 284         D82        0.00425   0.05281   0.000001000.00000
 285         D83        0.00396   0.04774   0.000001000.00000
 286         D84       -0.00163  -0.00449   0.000001000.00000
 287         D85       -0.00192  -0.00955  -0.000001000.00000
 288         D86       -0.01834  -0.01273  -0.000001000.00000
 289         D87       -0.01198  -0.00783  -0.000001000.00000
 290         D88       -0.00556  -0.00656   0.000001000.00000
 291         D89        0.00081  -0.00165  -0.000001000.00000
 292         D90        0.10755   0.10592  -0.000001000.00000
 293         D91        0.09548   0.09971   0.000001000.00000
 294         D92        0.00809   0.01174   0.000001000.00000
 295         D93       -0.00740   0.01045   0.000001000.00000
 296         D94        0.01953   0.01777   0.000001000.00000
 297         D95        0.00404   0.01648   0.000001000.00000
 298         D96        0.00306   0.01482   0.000001000.00000
 299         D97       -0.00019  -0.00307  -0.000001000.00000
 300         D98       -0.00328   0.00995  -0.000001000.00000
 301         D99       -0.00653  -0.00795  -0.000001000.00000
 302         D100      -0.00515  -0.01729   0.000001000.00000
 303         D101      -0.00260  -0.01018   0.000001000.00000
 304         D102       0.00122  -0.00372  -0.000001000.00000
 305         D103       0.00249   0.00730   0.000001000.00000
 306         D104       0.00354   0.01587   0.000001000.00000
 307         D105       0.00206   0.00668  -0.000001000.00000
 308         D106      -0.00327  -0.02070   0.000001000.00000
 309         D107      -0.00386  -0.02491   0.000001000.00000
 310         D108       0.00514   0.02431  -0.000001000.00000
 311         D109       0.00602   0.03641  -0.000001000.00000
 312         D110       0.00379   0.00456  -0.000001000.00000
 313         D111       0.00467   0.01667  -0.000001000.00000
 314         D112       0.00010   0.01043   0.000001000.00000
 315         D113       0.00036   0.01169  -0.000001000.00000
 316         D114      -0.00075  -0.00144   0.000001000.00000
 317         D115      -0.00049  -0.00019  -0.000001000.00000
 318         D116       0.00125  -0.00793  -0.000001000.00000
 319         D117      -0.00142  -0.01510  -0.000001000.00000
 320         D118       0.00212   0.00401  -0.000001000.00000
 321         D119      -0.00055  -0.00315   0.000001000.00000
 322         D120       0.00112   0.00508   0.000001000.00000
 323         D121       0.00050   0.00077   0.000001000.00000
 324         D122       0.00086   0.00382   0.000001000.00000
 325         D123       0.00024  -0.00049   0.000001000.00000
 326         D124      -0.00012  -0.00390  -0.000001000.00000
 327         D125      -0.00118  -0.00715   0.000001000.00000
 328         D126       0.00049   0.00042   0.000001000.00000
 329         D127      -0.00057  -0.00283  -0.000001000.00000
 330         D128      -0.00265  -0.00978  -0.000001000.00000
 331         D129      -0.00116  -0.00075   0.000001000.00000
 332         D130      -0.00161  -0.00656  -0.000001000.00000
 333         D131      -0.00011   0.00247  -0.000001000.00000
 334         D132       0.00060   0.00591  -0.000001000.00000
 335         D133       0.00301   0.01354  -0.000001000.00000
 336         D134      -0.00090  -0.00331  -0.000001000.00000
 337         D135       0.00151   0.00431   0.000001000.00000
 338         D136       0.00111   0.01812   0.000001000.00000
 339         D137       0.00172   0.02229   0.000001000.00000
 340         D138       0.00005   0.00681  -0.000001000.00000
 341         D139       0.00065   0.01098  -0.000001000.00000
 342         D140      -0.00266  -0.02254  -0.000001000.00000
 343         D141      -0.00541  -0.01654  -0.000001000.00000
 344         D142      -0.00135  -0.01159  -0.000001000.00000
 345         D143      -0.00410  -0.00558  -0.000001000.00000
 346         D144       0.00112   0.00113   0.000001000.00000
 347         D145       0.00048  -0.00220  -0.000001000.00000
 348         D146       0.00050  -0.00300  -0.000001000.00000
 349         D147      -0.00014  -0.00632  -0.000001000.00000
 350         D148      -0.00095  -0.00439   0.000001000.00000
 351         D149      -0.00052  -0.00415   0.000001000.00000
 352         D150      -0.00031  -0.00104  -0.000001000.00000
 353         D151       0.00012  -0.00080  -0.000001000.00000
 354         D152       0.00024   0.00368   0.000001000.00000
 355         D153       0.00126   0.00024  -0.000001000.00000
 356         D154      -0.00019   0.00344   0.000001000.00000
 357         D155       0.00083  -0.00000  -0.000001000.00000
 358         D156       0.00092   0.00429   0.000001000.00000
 359         D157       0.00358  -0.00169  -0.000001000.00000
 360         D158      -0.00010   0.00772   0.000001000.00000
 361         D159       0.00256   0.00173  -0.000001000.00000
 362         D160       0.00040  -0.04352   0.000001000.00000
 363         D161       0.00376  -0.02520   0.000001000.00000
 364         D162      -0.00235  -0.03744   0.000001000.00000
 365         D163       0.00101  -0.01912  -0.000001000.00000
 366         D164       0.00418   0.00913   0.000001000.00000
 367         D165       0.00449   0.01426   0.000001000.00000
 368         D166       0.00089  -0.00827  -0.000001000.00000
 369         D167       0.00119  -0.00314   0.000001000.00000
 370         D168      -0.00067  -0.00685   0.000001000.00000
 371         D169       0.00474  -0.00426   0.000001000.00000
 372         D170      -0.00303  -0.00373   0.000001000.00000
 373         D171       0.00238  -0.00114   0.000001000.00000
 RFO step:  Lambda0=3.154559564D-04 Lambda=-1.98227803D-04.
 Linear search not attempted -- option 19 set.
 Iteration  1 RMS(Cart)=  0.02906598 RMS(Int)=  0.00029108
 Iteration  2 RMS(Cart)=  0.00041454 RMS(Int)=  0.00006217
 Iteration  3 RMS(Cart)=  0.00000016 RMS(Int)=  0.00006217
 Variable       Old X    -DE/DX   Delta X   Delta X   Delta X     New X
                                 (Linear)    (Quad)   (Total)
    R1        3.48781   0.00013   0.00000  -0.00118  -0.00118   3.48663
    R2        3.49908   0.00012   0.00000   0.00213   0.00213   3.50121
    R3        3.39723   0.00001   0.00000  -0.00030  -0.00030   3.39693
    R4        3.97747  -0.00029   0.00000   0.00052   0.00053   3.97800
    R5        6.21419   0.00109   0.00000  -0.13872  -0.13879   6.07539
    R6        4.01712  -0.00054   0.00000   0.00247   0.00251   4.01963
    R7        9.94993   0.00015   0.00000  -0.15487  -0.15477   9.79516
    R8        2.15424  -0.00026   0.00000  -0.00002  -0.00002   2.15422
    R9        2.15073  -0.00000   0.00000  -0.00019  -0.00019   2.15054
   R10        2.16082   0.00013   0.00000   0.00017   0.00017   2.16099
   R11        2.52565   0.00007   0.00000  -0.00044  -0.00044   2.52521
   R12        2.54523  -0.00053   0.00000  -0.00061  -0.00061   2.54461
   R13        2.62903   0.00028   0.00000   0.00048   0.00047   2.62950
   R14        2.06053   0.00005   0.00000   0.00008   0.00008   2.06061
   R15        2.62094   0.00013   0.00000   0.00021   0.00021   2.62115
   R16        2.06389  -0.00001   0.00000  -0.00002  -0.00002   2.06387
   R17        2.63626   0.00007   0.00000   0.00000  -0.00000   2.63626
   R18        2.63458   0.00010   0.00000  -0.00003  -0.00002   2.63456
   R19        2.05605   0.00001   0.00000  -0.00012  -0.00012   2.05593
   R20        2.18895  -0.00058   0.00000  -0.00023  -0.00019   2.18876
   R21        2.71637  -0.00057   0.00000  -0.00093  -0.00088   2.71549
   R22        2.65017  -0.00002   0.00000   0.00011   0.00015   2.65031
   R23        2.64958  -0.00040   0.00000  -0.00027  -0.00020   2.64938
   R24        2.62772   0.00003   0.00000   0.00016   0.00015   2.62787
   R25        2.06026  -0.00004   0.00000   0.00002   0.00002   2.06028
   R26        2.06216   0.00001   0.00000   0.00003   0.00003   2.06219
   R27        2.63727  -0.00006   0.00000  -0.00014  -0.00018   2.63709
   R28        2.05862   0.00028   0.00000   0.00050   0.00045   2.05908
   R29        2.62876   0.00005   0.00000  -0.00021  -0.00020   2.62856
   R30       12.60835   0.00034   0.00000   0.04634   0.04633  12.65468
   R31        9.59152  -0.00003   0.00000   0.09658   0.09648   9.68800
   R32        2.54301  -0.00000   0.00000   0.00029   0.00030   2.54331
   R33        2.52413  -0.00004   0.00000  -0.00059  -0.00058   2.52355
   R34        2.63194   0.00000   0.00000   0.00043   0.00042   2.63236
   R35        2.05978  -0.00011   0.00000   0.00008   0.00012   2.05990
   R36        2.61965  -0.00009   0.00000   0.00006   0.00006   2.61971
   R37        2.63458   0.00004   0.00000  -0.00014  -0.00010   2.63448
   R38        2.06372   0.00001   0.00000  -0.00002  -0.00002   2.06369
   R39        2.06901  -0.00010   0.00000   0.00013   0.00013   2.06914
   R40        2.06078  -0.00002   0.00000  -0.00006  -0.00006   2.06072
   R41        3.36676  -0.00011   0.00000   0.00117   0.00117   3.36792
   R42        3.36696  -0.00012   0.00000   0.00106   0.00105   3.36801
   R43        3.35424   0.00007   0.00000  -0.00020  -0.00020   3.35404
   R44        3.35428  -0.00004   0.00000  -0.00004  -0.00004   3.35423
   R45        2.81128   0.00030   0.00000   0.00006   0.00005   2.81134
   R46        2.64368   0.00007   0.00000   0.00020   0.00020   2.64388
   R47        2.66237   0.00000   0.00000   0.00035   0.00034   2.66272
   R48        2.63094   0.00010   0.00000  -0.00013  -0.00013   2.63081
   R49        2.06343  -0.00000   0.00000   0.00002   0.00002   2.06346
   R50        2.62957   0.00004   0.00000  -0.00010  -0.00009   2.62947
   R51        2.06216  -0.00000   0.00000  -0.00001  -0.00001   2.06215
   R52        2.63969  -0.00002   0.00000  -0.00003  -0.00003   2.63966
   R53        2.06309   0.00000   0.00000  -0.00003  -0.00003   2.06306
   R54        2.64854   0.00002   0.00000   0.00023   0.00023   2.64877
   R55        2.64970  -0.00005   0.00000   0.00011   0.00012   2.64982
   R56        2.66372  -0.00025   0.00000   0.00003   0.00002   2.66375
   R57        2.63972   0.00005   0.00000   0.00007   0.00007   2.63979
   R58        2.62922   0.00002   0.00000  -0.00005  -0.00006   2.62916
   R59        2.06306  -0.00001   0.00000  -0.00003  -0.00003   2.06303
   R60        2.63074  -0.00002   0.00000  -0.00017  -0.00017   2.63057
   R61        2.06208  -0.00000   0.00000  -0.00001  -0.00001   2.06207
   R62        2.64420  -0.00003   0.00000   0.00015   0.00015   2.64435
   R63        2.06351   0.00003   0.00000   0.00001   0.00001   2.06353
   R64        2.81276  -0.00013   0.00000  -0.00044  -0.00043   2.81232
   R65        2.63742  -0.00016   0.00000  -0.00028  -0.00024   2.63718
   R66        2.05505  -0.00002   0.00000  -0.00068  -0.00068   2.05437
   R67        2.63643   0.00005   0.00000   0.00034   0.00031   2.63673
   R68        2.06300  -0.00000   0.00000  -0.00001  -0.00001   2.06300
   R69        2.06217   0.00001   0.00000  -0.00001  -0.00001   2.06215
    A1        1.56597   0.00020   0.00000   0.00058   0.00063   1.56659
    A2        1.57712  -0.00025   0.00000   0.00216   0.00219   1.57931
    A3        3.12664  -0.00034   0.00000  -0.00600  -0.00601   3.12063
    A4        3.25427  -0.00033   0.00000   0.00472   0.00476   3.25903
    A5        1.76048   0.00106   0.00000  -0.01428  -0.01430   1.74618
    A6        1.53986   0.00054   0.00000   0.00387   0.00399   1.54385
    A7        1.90877  -0.00025   0.00000  -0.03920  -0.03927   1.86950
    A8        1.57466   0.00004   0.00000  -0.00749  -0.00740   1.56726
    A9        1.56067  -0.00054   0.00000  -0.00658  -0.00664   1.55403
   A10        1.83746  -0.00042   0.00000   0.00231   0.00231   1.83977
   A11        3.10583   0.00074   0.00000   0.00445   0.00462   3.11045
   A12        3.04858  -0.00039   0.00000   0.01747   0.01739   3.06597
   A13        0.86618  -0.00022   0.00000  -0.00724  -0.00676   0.85942
   A14        1.67720  -0.00008   0.00000   0.00247   0.00243   1.67963
   A15        3.33759   0.00080   0.00000  -0.01213  -0.01211   3.32549
   A16        3.41612  -0.00030   0.00000  -0.00572  -0.00560   3.41052
   A17        1.66012   0.00034   0.00000  -0.00992  -0.00994   1.65019
   A18        3.48589  -0.00050   0.00000  -0.03704  -0.03708   3.44881
   A19        2.38631  -0.00002   0.00000  -0.00194  -0.00210   2.38421
   A20        1.27677  -0.00066   0.00000   0.01149   0.01148   1.28826
   A21        1.60595  -0.00021   0.00000   0.00366   0.00363   1.60958
   A22        1.14167   0.00024   0.00000   0.03113   0.03119   1.17286
   A23        1.22031  -0.00006   0.00000   0.01303   0.01305   1.23335
   A24        2.20552  -0.00046   0.00000   0.01801   0.01796   2.22347
   A25        3.16993   0.00008   0.00000   0.00064   0.00065   3.17058
   A26        3.17137   0.00008   0.00000  -0.00079  -0.00080   3.17057
   A27        3.12529   0.00000   0.00000   0.00957   0.00958   3.13487
   A28        3.13856   0.00006   0.00000   0.01056   0.01055   3.14911
   A29        3.19077  -0.00067   0.00000  -0.00137  -0.00137   3.18940
   A30        3.17632   0.00020   0.00000   0.01337   0.01337   3.18969
   A31        3.11536  -0.00001   0.00000  -0.00070  -0.00070   3.11466
   A32        3.15800   0.00009   0.00000   0.00229   0.00229   3.16029
   A33        2.17006  -0.00039   0.00000   0.00042   0.00046   2.17052
   A34        2.05779   0.00017   0.00000  -0.00133  -0.00136   2.05643
   A35        2.05450   0.00023   0.00000   0.00094   0.00094   2.05544
   A36        2.12758   0.00015   0.00000  -0.00093  -0.00093   2.12666
   A37        2.08319  -0.00001   0.00000   0.00003   0.00003   2.08321
   A38        2.07233  -0.00014   0.00000   0.00087   0.00087   2.07319
   A39        2.10978   0.00001   0.00000  -0.00015  -0.00015   2.10963
   A40        2.07281   0.00003   0.00000   0.00021   0.00020   2.07301
   A41        2.10056  -0.00004   0.00000  -0.00003  -0.00003   2.10053
   A42        2.16337   0.00002   0.00000  -0.00023  -0.00024   2.16313
   A43        2.04992  -0.00004   0.00000   0.00023   0.00024   2.05016
   A44        2.06965   0.00002   0.00000   0.00003   0.00004   2.06968
   A45        2.51575   0.00053   0.00000   0.01163   0.01169   2.52744
   A46        2.16302   0.00045   0.00000   0.00119   0.00123   2.16425
   A47        3.13480   0.00000   0.00000  -0.00242  -0.00231   3.13249
   A48        3.10162  -0.00005   0.00000  -0.00964  -0.00950   3.09212
   A49        3.10192  -0.00005   0.00000  -0.00929  -0.00917   3.09275
   A50        3.13563  -0.00001   0.00000   0.00010   0.00013   3.13575
   A51        2.09191   0.00007   0.00000  -0.00096  -0.00094   2.09097
   A52        2.08754  -0.00012   0.00000   0.00051   0.00059   2.08813
   A53        2.10365   0.00005   0.00000   0.00036   0.00023   2.10388
   A54        2.08435   0.00006   0.00000   0.00003   0.00011   2.08446
   A55        2.09312  -0.00002   0.00000   0.00020   0.00016   2.09327
   A56        2.10572  -0.00004   0.00000  -0.00022  -0.00026   2.10545
   A57        2.08965   0.00001   0.00000   0.00001   0.00001   2.08966
   A58        2.09634  -0.00008   0.00000  -0.00033  -0.00032   2.09601
   A59        2.09719   0.00006   0.00000   0.00031   0.00031   2.09751
   A60        2.08404   0.00027   0.00000   0.00044   0.00053   2.08457
   A61        2.08532  -0.00004   0.00000  -0.00039  -0.00036   2.08496
   A62        2.11380  -0.00023   0.00000  -0.00005  -0.00017   2.11363
   A63        0.85127  -0.00005   0.00000  -0.01423  -0.01409   0.83718
   A64        2.47554  -0.00083   0.00000  -0.03309  -0.03307   2.44247
   A65        2.07778  -0.00039   0.00000   0.00489   0.00475   2.08253
   A66        2.15199   0.00030   0.00000  -0.00432  -0.00423   2.14776
   A67        2.05290   0.00008   0.00000  -0.00018  -0.00021   2.05269
   A68        2.11817  -0.00002   0.00000  -0.00039  -0.00029   2.11788
   A69        2.07999   0.00002   0.00000   0.00027   0.00025   2.08025
   A70        2.08480   0.00001   0.00000   0.00014   0.00005   2.08486
   A71        2.07463   0.00000   0.00000  -0.00010  -0.00012   2.07452
   A72        2.10784  -0.00003   0.00000  -0.00024  -0.00023   2.10761
   A73        2.10064   0.00003   0.00000   0.00035   0.00035   2.10100
   A74        1.00217   0.00022   0.00000  -0.01476  -0.01475   0.98743
   A75        2.13664  -0.00009   0.00000  -0.00083  -0.00083   2.13582
   A76        2.07084  -0.00034   0.00000  -0.00355  -0.00355   2.06729
   A77        2.07564   0.00042   0.00000   0.00440   0.00440   2.08003
   A78        2.14015  -0.00007   0.00000  -0.00042  -0.00037   2.13978
   A79        2.04360   0.00000   0.00000  -0.00014  -0.00017   2.04343
   A80        2.09938   0.00006   0.00000   0.00057   0.00054   2.09992
   A81        1.76489   0.00011   0.00000   0.00025   0.00024   1.76513
   A82        1.77037   0.00010   0.00000  -0.00029  -0.00030   1.77007
   A83        2.05373  -0.00019   0.00000  -0.00046  -0.00046   2.05327
   A84        2.14043   0.00004   0.00000   0.00021   0.00020   2.14063
   A85        2.08897   0.00015   0.00000   0.00021   0.00022   2.08919
   A86        2.08656   0.00017   0.00000  -0.00153  -0.00152   2.08503
   A87        2.12015  -0.00004   0.00000   0.00155   0.00154   2.12169
   A88        2.07640  -0.00013   0.00000   0.00002   0.00002   2.07641
   A89        2.11003   0.00001   0.00000   0.00033   0.00033   2.11036
   A90        2.07782  -0.00002   0.00000  -0.00024  -0.00024   2.07758
   A91        2.09507   0.00001   0.00000  -0.00009  -0.00009   2.09498
   A92        2.09612   0.00004   0.00000  -0.00024  -0.00024   2.09588
   A93        2.09458  -0.00001   0.00000   0.00005   0.00005   2.09463
   A94        2.09237  -0.00003   0.00000   0.00017   0.00017   2.09254
   A95        2.09051  -0.00004   0.00000   0.00002   0.00002   2.09053
   A96        2.10380   0.00004   0.00000   0.00011   0.00011   2.10392
   A97        2.08879  -0.00001   0.00000  -0.00012  -0.00012   2.08867
   A98        2.07296   0.00006   0.00000  -0.00018  -0.00018   2.07278
   A99        2.10812  -0.00002   0.00000  -0.00017  -0.00018   2.10795
   A100       2.10084  -0.00004   0.00000   0.00043   0.00043   2.10127
   A101       2.10246  -0.00007   0.00000   0.00141   0.00140   2.10387
   A102       2.08656  -0.00009   0.00000  -0.00084  -0.00084   2.08572
   A103       2.09126   0.00016   0.00000  -0.00054  -0.00054   2.09072
   A104       2.08485   0.00005   0.00000  -0.00072  -0.00072   2.08413
   A105       2.10599  -0.00008   0.00000   0.00130   0.00130   2.10729
   A106       2.08957   0.00004   0.00000  -0.00041  -0.00041   2.08916
   A107       2.10942  -0.00012   0.00000  -0.00020  -0.00020   2.10922
   A108       2.07107   0.00014   0.00000  -0.00018  -0.00018   2.07089
   A109       2.10144  -0.00002   0.00000   0.00042   0.00042   2.10186
   A110       2.09124  -0.00003   0.00000  -0.00006  -0.00007   2.09118
   A111       2.08814   0.00003   0.00000  -0.00005  -0.00005   2.08809
   A112       2.10374  -0.00001   0.00000   0.00012   0.00012   2.10386
   A113       2.09546  -0.00003   0.00000  -0.00029  -0.00029   2.09517
   A114       2.09250   0.00003   0.00000   0.00030   0.00030   2.09280
   A115       2.09510  -0.00001   0.00000  -0.00002  -0.00002   2.09509
   A116       2.11045  -0.00001   0.00000   0.00042   0.00042   2.11087
   A117       2.09463   0.00001   0.00000  -0.00034  -0.00034   2.09429
   A118       2.07785   0.00000   0.00000  -0.00010  -0.00011   2.07774
   A119       2.07701   0.00005   0.00000  -0.00002  -0.00003   2.07698
   A120       2.12372   0.00009   0.00000   0.00174   0.00175   2.12547
   A121       2.08236  -0.00014   0.00000  -0.00167  -0.00169   2.08067
   A122       2.13843   0.00015   0.00000   0.00106   0.00104   2.13947
   A123       2.05169  -0.00000   0.00000  -0.00043  -0.00042   2.05127
   A124       2.09302  -0.00015   0.00000  -0.00068  -0.00068   2.09233
   A125       2.16457  -0.00002   0.00000   0.00082   0.00081   2.16538
   A126       2.04883   0.00002   0.00000  -0.00030  -0.00029   2.04853
   A127       2.06970  -0.00000   0.00000  -0.00054  -0.00053   2.06917
   A128       2.10136  -0.00008   0.00000   0.00010   0.00007   2.10143
   A129       2.09078   0.00004   0.00000  -0.00007  -0.00006   2.09072
   A130       2.09104   0.00004   0.00000  -0.00002  -0.00001   2.09102
   A131       2.09521   0.00008   0.00000   0.00024   0.00027   2.09548
   A132       2.08934  -0.00005   0.00000  -0.00002  -0.00003   2.08931
   A133       2.09863  -0.00003   0.00000  -0.00022  -0.00024   2.09839
    D1        2.28324  -0.00014   0.00000  -0.01448  -0.01438   2.26887
    D2       -0.90344   0.00007   0.00000  -0.01344  -0.01334  -0.91678
    D3        0.70964  -0.00013   0.00000  -0.00622  -0.00618   0.70346
    D4       -2.47704   0.00008   0.00000  -0.00518  -0.00515  -2.48219
    D5       -2.14701  -0.00035   0.00000  -0.01109  -0.01103  -2.15804
    D6        0.94949  -0.00014   0.00000  -0.01006  -0.01000   0.93950
    D7       -0.95482  -0.00044   0.00000   0.00325   0.00330  -0.95152
    D8        2.14169  -0.00023   0.00000   0.00429   0.00434   2.14602
    D9        3.06776   0.00005   0.00000  -0.00504  -0.00527   3.06249
   D10       -0.11892   0.00026   0.00000  -0.00401  -0.00423  -0.12315
   D11       -1.03434   0.00009   0.00000  -0.00512  -0.00496  -1.03930
   D12        2.80673   0.00008   0.00000  -0.00314  -0.00310   2.80363
   D13       -2.98460  -0.00020   0.00000  -0.00357  -0.00347  -2.98807
   D14        0.85646  -0.00021   0.00000  -0.00159  -0.00161   0.85486
   D15        2.20699   0.00015   0.00000   0.00401   0.00416   2.21115
   D16       -0.23513   0.00014   0.00000   0.00599   0.00602  -0.22911
   D17        0.05355   0.00019   0.00000   0.01440   0.01446   0.06801
   D18       -2.38857   0.00017   0.00000   0.01638   0.01632  -2.37224
   D19        0.87114   0.00047   0.00000  -0.02516  -0.02520   0.84594
   D20       -2.30594   0.00048   0.00000  -0.01185  -0.01188  -2.31781
   D21        2.44551   0.00026   0.00000  -0.02234  -0.02238   2.42314
   D22       -0.73156   0.00027   0.00000  -0.00904  -0.00906  -0.74062
   D23       -2.15681   0.00017   0.00000  -0.01997  -0.02007  -2.17689
   D24        0.94930   0.00019   0.00000  -0.00666  -0.00675   0.94255
   D25       -0.91344  -0.00046   0.00000  -0.00695  -0.00709  -0.92054
   D26        2.19267  -0.00045   0.00000   0.00636   0.00622   2.19889
   D27       -1.09941   0.00048   0.00000   0.01668   0.01703  -1.08238
   D28        2.00670   0.00050   0.00000   0.02999   0.03035   2.03705
   D29        3.03567   0.00022   0.00000  -0.00560  -0.00560   3.03007
   D30       -0.12976   0.00022   0.00000  -0.00371  -0.00371  -0.13347
   D31       -0.06092   0.00002   0.00000  -0.00658  -0.00657  -0.06749
   D32        3.05684   0.00001   0.00000  -0.00469  -0.00469   3.05215
   D33       -3.09085  -0.00026   0.00000   0.00272   0.00271  -3.08814
   D34        0.06304  -0.00026   0.00000   0.00101   0.00102   0.06406
   D35        0.00869  -0.00008   0.00000   0.00367   0.00367   0.01236
   D36       -3.12060  -0.00009   0.00000   0.00197   0.00197  -3.11863
   D37       -0.02153   0.00000   0.00000   0.00055   0.00055  -0.02098
   D38        3.12938   0.00000   0.00000  -0.00212  -0.00212   3.12726
   D39        3.10572  -0.00001   0.00000  -0.00180  -0.00181   3.10391
   D40       -0.02656  -0.00001   0.00000  -0.00448  -0.00448  -0.03104
   D41        0.03418   0.00008   0.00000   0.00176   0.00176   0.03595
   D42       -3.11974   0.00008   0.00000   0.00341   0.00342  -3.11632
   D43       -3.12130   0.00006   0.00000  -0.00054  -0.00054  -3.12184
   D44        0.00796   0.00007   0.00000   0.00111   0.00111   0.00908
   D45       -0.02060  -0.00004   0.00000   0.00186   0.00186  -0.01874
   D46        3.13273  -0.00007   0.00000   0.00494   0.00493   3.13766
   D47        3.13026  -0.00004   0.00000  -0.00080  -0.00080   3.12946
   D48        0.00040  -0.00007   0.00000   0.00228   0.00227   0.00268
   D49        0.06717   0.00003   0.00000   0.00380   0.00380   0.07097
   D50       -3.08580   0.00006   0.00000   0.00082   0.00083  -3.08497
   D51       -3.05034   0.00004   0.00000   0.00190   0.00190  -3.04844
   D52        0.07988   0.00006   0.00000  -0.00108  -0.00108   0.07880
   D53       -3.11339   0.00025   0.00000   0.00776   0.00764  -3.10575
   D54        0.02995   0.00021   0.00000   0.00645   0.00638   0.03633
   D55        0.01428  -0.00001   0.00000   0.00023   0.00018   0.01446
   D56       -3.12557  -0.00006   0.00000  -0.00107  -0.00108  -3.12665
   D57       -0.03995  -0.00042   0.00000  -0.00741  -0.00726  -0.04721
   D58        3.10956  -0.00032   0.00000  -0.00705  -0.00690   3.10265
   D59        3.11553  -0.00015   0.00000   0.00010   0.00021   3.11574
   D60       -0.01815  -0.00006   0.00000   0.00047   0.00056  -0.01759
   D61        3.13802   0.00001   0.00000  -0.00061  -0.00060   3.13743
   D62       -0.00082   0.00006   0.00000  -0.00035  -0.00035  -0.00117
   D63       -0.00533   0.00005   0.00000   0.00070   0.00068  -0.00465
   D64        3.13901   0.00011   0.00000   0.00097   0.00092   3.13993
   D65       -0.00871  -0.00004   0.00000  -0.00024  -0.00021  -0.00892
   D66        3.13431  -0.00002   0.00000   0.00009   0.00010   3.13441
   D67        3.13564   0.00002   0.00000   0.00003   0.00004   3.13568
   D68       -0.00453   0.00003   0.00000   0.00036   0.00034  -0.00418
   D69        0.14699   0.00014   0.00000   0.01028   0.01038   0.15738
   D70       -0.01661  -0.00045   0.00000  -0.00314  -0.00287  -0.01948
   D71       -3.00265   0.00005   0.00000   0.00990   0.01003  -2.99262
   D72        3.11693  -0.00054   0.00000  -0.00351  -0.00322   3.11371
   D73        0.00855   0.00008   0.00000  -0.00106  -0.00112   0.00743
   D74       -3.13660  -0.00002   0.00000  -0.00113  -0.00115  -3.13775
   D75       -3.12499   0.00018   0.00000  -0.00068  -0.00076  -3.12576
   D76        0.01305   0.00007   0.00000  -0.00076  -0.00080   0.01225
   D77        1.66506  -0.00009   0.00000   0.00914   0.00931   1.67437
   D78        3.09826  -0.00005   0.00000   0.01419   0.01423   3.11250
   D79       -0.03248   0.00005   0.00000   0.01376   0.01379  -0.01869
   D80       -0.00986  -0.00006   0.00000   0.00173   0.00173  -0.00813
   D81       -3.14060   0.00003   0.00000   0.00130   0.00128  -3.13932
   D82       -3.04092  -0.00016   0.00000  -0.01376  -0.01374  -3.05467
   D83        0.11505   0.00003   0.00000  -0.01260  -0.01258   0.10247
   D84        0.06566  -0.00015   0.00000  -0.00053  -0.00054   0.06512
   D85       -3.06155   0.00004   0.00000   0.00063   0.00062  -3.06093
   D86       -3.13844  -0.00004   0.00000   0.00135   0.00136  -3.13708
   D87        0.01581  -0.00009   0.00000   0.00103   0.00104   0.01686
   D88        0.02568  -0.00006   0.00000   0.00059   0.00059   0.02627
   D89       -3.10325  -0.00011   0.00000   0.00028   0.00027  -3.10298
   D90       -1.86473   0.00016   0.00000  -0.01615  -0.01612  -1.88085
   D91        1.25427   0.00018   0.00000  -0.01540  -0.01534   1.23893
   D92       -0.03480   0.00017   0.00000  -0.00176  -0.00175  -0.03656
   D93        3.09560   0.00007   0.00000  -0.00132  -0.00130   3.09430
   D94        3.12888   0.00015   0.00000  -0.00250  -0.00251   3.12638
   D95       -0.02390   0.00005   0.00000  -0.00205  -0.00206  -0.02595
   D96       -3.12741  -0.00026   0.00000  -0.00509  -0.00510  -3.13251
   D97        0.02445  -0.00014   0.00000   0.00047   0.00046   0.02491
   D98        0.00158  -0.00021   0.00000  -0.00478  -0.00478  -0.00321
   D99       -3.12975  -0.00009   0.00000   0.00078   0.00078  -3.12897
   D100      -2.41456  -0.00003   0.00000   0.00186   0.00186  -2.41270
   D101       0.80909   0.00001   0.00000   0.00151   0.00151   0.81060
   D102      -0.80808  -0.00002   0.00000   0.00140   0.00140  -0.80667
   D103       2.41371  -0.00010   0.00000  -0.00114  -0.00115   2.41256
   D104       2.43867   0.00002   0.00000  -0.00250  -0.00250   2.43617
   D105      -0.75686   0.00003   0.00000  -0.00081  -0.00081  -0.75767
   D106       0.75758  -0.00001   0.00000   0.00379   0.00380   0.76138
   D107      -2.43778   0.00001   0.00000   0.00469   0.00469  -2.43308
   D108       1.03796   0.00022   0.00000  -0.00313  -0.00312   1.03484
   D109      -2.09020   0.00021   0.00000  -0.00613  -0.00612  -2.09631
   D110      -2.09166   0.00020   0.00000   0.00001   0.00001  -2.09165
   D111       1.06336   0.00019   0.00000  -0.00299  -0.00298   1.06038
   D112       3.11644  -0.00002   0.00000  -0.00208  -0.00207   3.11436
   D113      -0.00037  -0.00000   0.00000  -0.00216  -0.00216  -0.00253
   D114      -0.03825  -0.00001   0.00000   0.00086   0.00085  -0.03739
   D115       3.12813   0.00001   0.00000   0.00077   0.00077   3.12890
   D116       0.10707   0.00006   0.00000   0.00226   0.00226   0.10933
   D117      -3.11680   0.00001   0.00000   0.00260   0.00260  -3.11420
   D118      -3.02116   0.00005   0.00000  -0.00071  -0.00071  -3.02187
   D119       0.03815  -0.00000   0.00000  -0.00037  -0.00037   0.03778
   D120       0.00089   0.00001   0.00000  -0.00092  -0.00092  -0.00003
   D121      -3.12436   0.00001   0.00000  -0.00008  -0.00008  -3.12444
   D122       3.11745  -0.00001   0.00000  -0.00084  -0.00084   3.11662
   D123      -0.00780  -0.00000   0.00000   0.00000   0.00000  -0.00779
   D124       0.03668   0.00001   0.00000   0.00047   0.00047   0.03715
   D125      -3.11845   0.00000   0.00000   0.00126   0.00126  -3.11718
   D126      -3.12123   0.00000   0.00000  -0.00037  -0.00037  -3.12160
   D127       0.00683  -0.00000   0.00000   0.00042   0.00042   0.00725
   D128       3.05142  -0.00001   0.00000   0.00168   0.00168   3.05311
   D129      -0.03646  -0.00002   0.00000   0.00002   0.00002  -0.03644
   D130      -0.07675  -0.00001   0.00000   0.00089   0.00089  -0.07586
   D131       3.11855  -0.00001   0.00000  -0.00077  -0.00077   3.11778
   D132      -0.02793  -0.00005   0.00000  -0.00132  -0.00133  -0.02926
   D133      -3.08800   0.00001   0.00000  -0.00177  -0.00177  -3.08977
   D134       3.05886  -0.00004   0.00000   0.00037   0.00037   3.05923
   D135      -0.00121   0.00001   0.00000  -0.00007  -0.00007  -0.00128
   D136       0.02704  -0.00002   0.00000  -0.00395  -0.00395   0.02309
   D137      -3.05985  -0.00005   0.00000  -0.00484  -0.00485  -3.06469
   D138       3.08921   0.00004   0.00000  -0.00135  -0.00135   3.08786
   D139       0.00232   0.00002   0.00000  -0.00224  -0.00224   0.00008
   D140       3.02254   0.00008   0.00000   0.00492   0.00493   3.02747
   D141      -0.10399  -0.00004   0.00000   0.00177   0.00177  -0.10221
   D142      -0.03864   0.00000   0.00000   0.00238   0.00238  -0.03626
   D143       3.11801  -0.00011   0.00000  -0.00076  -0.00077   3.11724
   D144      -3.05252  -0.00003   0.00000  -0.00014  -0.00014  -3.05266
   D145       0.07647  -0.00002   0.00000   0.00043   0.00042   0.07690
   D146       0.03555  -0.00001   0.00000   0.00073   0.00073   0.03628
   D147      -3.11863   0.00000   0.00000   0.00129   0.00130  -3.11734
   D148      -0.03657  -0.00001   0.00000   0.00064   0.00064  -0.03593
   D149       3.12184   0.00002   0.00000   0.00103   0.00103   3.12287
   D150       3.11773  -0.00002   0.00000   0.00007   0.00007   3.11780
   D151      -0.00704  -0.00000   0.00000   0.00046   0.00046  -0.00658
   D152      -0.00040   0.00003   0.00000  -0.00048  -0.00048  -0.00087
   D153      -3.11705   0.00004   0.00000   0.00068   0.00068  -3.11637
   D154       3.12435   0.00001   0.00000  -0.00086  -0.00086   3.12349
   D155       0.00770   0.00002   0.00000   0.00029   0.00029   0.00799
   D156       0.03797  -0.00003   0.00000  -0.00103  -0.00103   0.03694
   D157      -3.11832   0.00009   0.00000   0.00207   0.00207  -3.11625
   D158      -3.12833  -0.00004   0.00000  -0.00218  -0.00218  -3.13050
   D159      -0.00143   0.00007   0.00000   0.00092   0.00092  -0.00051
   D160       2.09641   0.00017   0.00000   0.01508   0.01510   2.11151
   D161      -1.05568   0.00005   0.00000   0.00940   0.00941  -1.04627
   D162      -1.03007   0.00006   0.00000   0.01191   0.01193  -1.01815
   D163       2.10102  -0.00006   0.00000   0.00623   0.00624   2.10726
   D164      -0.07329   0.00026   0.00000  -0.00055  -0.00053  -0.07382
   D165       3.05377   0.00007   0.00000  -0.00171  -0.00171   3.05206
   D166       3.07829   0.00037   0.00000   0.00484   0.00486   3.08316
   D167      -0.07784   0.00018   0.00000   0.00368   0.00369  -0.07415
   D168       0.00480  -0.00004   0.00000   0.00095   0.00095   0.00575
   D169      -3.13322   0.00007   0.00000   0.00102   0.00099  -3.13224
   D170      -3.13822  -0.00005   0.00000   0.00062   0.00064  -3.13757
   D171       0.00694   0.00005   0.00000   0.00070   0.00068   0.00762
         Item               Value     Threshold  Converged?
 Maximum Force            0.001091     0.000450     NO 
 RMS     Force            0.000206     0.000300     YES
 Maximum Displacement     0.261558     0.001800     NO 
 RMS     Displacement     0.028910     0.001200     NO 
 Predicted change in Energy= 6.551144D-05
 GradGradGradGradGradGradGradGradGradGradGradGradGradGradGradGradGradGrad

 Stoichiometry    C32H19BrMnN3O3S2
 Framework group  C1[X(C32H19BrMnN3O3S2)]
 Deg. of freedom   177
 Full point group                 C1      NOp   1
 Largest Abelian subgroup         C1      NOp   1
 Largest concise Abelian subgroup C1      NOp   1
                         Standard orientation:                         
 ---------------------------------------------------------------------
 Center     Atomic      Atomic             Coordinates (Angstroms)
 Number     Number       Type             X           Y           Z
 ---------------------------------------------------------------------
      1         25           0        2.246126   -1.534715   -1.044596
      2          6           0        3.005090   -3.215339   -0.983996
      3          8           0        3.472269   -4.255171   -0.979809
      4          6           0        3.743283   -0.899143   -1.931892
      5          8           0        4.644598   -0.554023   -2.534893
      6          6           0        1.481137   -1.920369   -2.624896
      7          7           0        1.526688    0.439544   -0.918037
      8          6           0        1.947192    2.690659   -0.215990
      9          6           0        0.643786    3.059835   -0.533858
     10          6           0        0.294820    0.817525   -1.271998
     11          1           0        2.664476    3.404329    0.190471
     12          1           0        0.293502    4.080478   -0.365382
     13          7           0        2.624005   -0.637731    2.019485
     14          6           0        1.706630   -0.103659    2.482858
     15          6           0        0.532504    0.545478    2.997584
     16          6           0       -0.479923   -0.217892    3.596937
     17          6           0       -1.631845    0.413128    4.053755
     18          6           0        0.397727    1.935403    2.872994
     19          1           0       -0.358671   -1.296347    3.701289
     20          1           0        1.205873    2.513888    2.426315
     21          7           0        0.628312   -2.286456    0.113892
     22          6           0       -0.111818   -3.495253    2.046409
     23          6           0       -1.441436   -3.208907    1.745523
     24          1           0        0.157164   -4.081200    2.925345
     25          6           0        2.345611    1.374978   -0.400803
     26          1           0        3.364671    1.082400   -0.127287
     27          6           0        0.888913   -3.002087    1.223531
     28          1           0        1.937468   -3.177715    1.466118
     29          1           0       -2.424368   -0.176660    4.517342
     30          8           0        0.963185   -2.151175   -3.617949
     31         16           0       -2.421920    0.579581    0.511022
     32         16           0       -5.397715    1.217491   -0.438149
     33          6           0       -0.215486    2.098550   -1.066534
     34          6           0       -1.626214    2.397463   -1.432235
     35          6           0       -1.895552    3.386936   -2.383983
     36          6           0       -3.202358    3.668948   -2.772385
     37          6           0       -4.263730    2.963764   -2.213494
     38          6           0       -4.017077    2.003517   -1.229486
     39          6           0       -2.703843    1.715362   -0.833173
     40          1           0       -1.061745    3.924542   -2.840125
     41          1           0       -3.394534    4.432685   -3.527758
     42          1           0       -5.289672    3.162950   -2.529133
     43          6           0       -3.520184   -0.753460    0.071336
     44          6           0       -4.831620   -0.461315   -0.329930
     45          6           0       -5.737820   -1.491904   -0.590806
     46          6           0       -5.350470   -2.815909   -0.410059
     47          6           0       -4.050274   -3.113521   -0.011711
     48          6           0       -3.115553   -2.096415    0.211714
     49          1           0       -6.748828   -1.250254   -0.924413
     50          1           0       -6.062554   -3.621437   -0.596551
     51          1           0       -3.740345   -4.153830    0.107055
     52          6           0       -1.726984   -2.459613    0.605106
     53          1           0       -2.248009   -3.553938    2.395897
     54          6           0       -0.652253   -2.062761   -0.191755
     55          1           0       -0.860649   -1.551432   -1.128217
     56          1           0       -0.333386    0.080231   -1.767370
     57          6           0       -1.774365    1.794489    3.916211
     58          6           0       -0.761004    2.554089    3.330579
     59          1           0       -0.871721    3.635251    3.232361
     60          1           0       -2.683641    2.283870    4.270489
     61         35           0        5.887463    1.838197    0.449229
 ---------------------------------------------------------------------
 Rotational constants (GHZ):           0.0973761           0.0510291           0.0465583
 Basis read from rwf:  (5D, 7F)
 There are   800 symmetry adapted cartesian basis functions of A   symmetry.
 There are   749 symmetry adapted basis functions of A   symmetry.
   749 basis functions,  1349 primitive gaussians,   800 cartesian basis functions
   174 alpha electrons      174 beta electrons
       nuclear repulsion energy      6623.9830222678 Hartrees.
 NAtoms=   61 NActive=   61 NUniq=   61 SFac= 1.00D+00 NAtFMM=   60 NAOKFM=T Big=T
 Integral buffers will be    131072 words long.
 Raffenetti 2 integral format.
 Two-electron integral symmetry is turned on.
 Nuclear repulsion after empirical dispersion term =     6623.9134582867 Hartrees.
 ------------------------------------------------------------------------------
 Polarizable Continuum Model (PCM)
 =================================
 Model                : PCM.
 Atomic radii         : UFF (Universal Force Field).
 Polarization charges : Total charges.
 Charge compensation  : None.
 Solution method      : On-the-fly selection.
 Cavity type          : Scaled VdW (van der Waals Surface) (Alpha=1.100).
 Cavity algorithm     : GePol (No added spheres)
                        Default sphere list used, NSphG=   61.
                        Lebedev-Laikov grids with approx.  5.0 points / Ang**2.
                        Smoothing algorithm: York/Karplus (Gamma=1.0000).
                        Polarization charges: spherical gaussians, with
                                              point-specific exponents (IZeta= 3).
                        Self-potential: point-specific (ISelfS= 7).
                        Self-field    : sphere-specific E.n sum rule (ISelfD= 2).
 1st derivatives      : Analytical E(r).r(x)/FMM algorithm (CHGder, D1EAlg=3).
                        Cavity 1st derivative terms included.
 Solvent              : TetraHydroFuran, Eps=   7.425700 Eps(inf)=   1.974025
 ------------------------------------------------------------------------------
 One-electron integrals computed using PRISM.
 PrsmSu:  requested number of processors reduced to:  11 ShMem   1 Linda.
 NBasis=   749 RedAO= T EigKep=  2.25D-04  NBF=   749
 NBsUse=   749 1.00D-06 EigRej= -1.00D+00 NBFU=   749
 Initial guess from the checkpoint file:  "checkpoint.chk"
 B after Tr=    -0.000000   -0.000000    0.000000
         Rot=    0.999859   -0.016453   -0.002552   -0.001969 Ang=  -1.92 deg.
 ExpMin= 3.93D-02 ExpMax= 2.77D+05 ExpMxC= 1.70D+04 IAcc=3 IRadAn=         5 AccDes= 0.00D+00
 Harris functional with IExCor= 4639 and IRadAn=       5 diagonalized for initial guess.
 HarFok:  IExCor= 4639 AccDes= 0.00D+00 IRadAn=         5 IDoV= 1 UseB2=F ITyADJ=14
 ICtDFT=  3500011 ScaDFX=  1.000000  1.000000  1.000000  1.000000
 FoFCou: FMM=F IPFlag=           0 FMFlag=      100000 FMFlg1=        2001
         NFxFlg=           0 DoJE=T BraDBF=F KetDBF=T FulRan=T
         wScrn=  0.000000 ICntrl=       500 IOpCl=  0 I1Cent=   200000004 NGrid=           0
         NMat0=    1 NMatS0=      1 NMatT0=    0 NMatD0=    1 NMtDS0=    0 NMtDT0=    0
 Petite list used in FoFCou.
 Requested convergence on RMS density matrix=1.00D-08 within 128 cycles.
 Requested convergence on MAX density matrix=1.00D-06.
 Requested convergence on             energy=1.00D-06.
 No special actions if energy rises.
 CoulSu:  requested number of processors reduced to:   9 ShMem   1 Linda.
 Inv3:  Mode=1 IEnd=    68545200.
 Iteration    1 A*A^-1 deviation from unit magnitude is 3.55D-15 for   2760.
 Iteration    1 A*A^-1 deviation from orthogonality  is 4.22D-15 for   2760   1990.
 Iteration    1 A^-1*A deviation from unit magnitude is 3.33D-15 for   4211.
 Iteration    1 A^-1*A deviation from orthogonality  is 2.44D-15 for   2565    964.
 CoulSu:  requested number of processors reduced to:   9 ShMem   1 Linda.
 CoulSu:  requested number of processors reduced to:   9 ShMem   1 Linda.
 Error on total polarization charges =  0.02663
 SCF Done:  E(RwB97XD) =  -6140.23069287     A.U. after   16 cycles
            NFock= 16  Conv=0.57D-08     -V/T= 2.0038
 PrsmSu:  requested number of processors reduced to:  11 ShMem   1 Linda.
 D1PCM: PCM CHGder 1st derivatives, ID1Alg=3 FixD1E=F DoIter=F DoCFld=F I1PDM=0.
 CoulSu:  requested number of processors reduced to:  10 ShMem   1 Linda.
 CoulSu:  requested number of processors reduced to:  10 ShMem   1 Linda.
 Calling FoFJK, ICntrl=      2127 FMM=T ISym2X=0 I1Cent= 0 IOpClX= 0 NMat=1 NMatS=1 NMatT=0.
 ***** Axes restored to original set *****
 -------------------------------------------------------------------
 Center     Atomic                   Forces (Hartrees/Bohr)
 Number     Number              X              Y              Z
 -------------------------------------------------------------------
      1       25           0.000168317   -0.000339713    0.000713138
      2        6          -0.000238287    0.000256798   -0.000229443
      3        8          -0.000113565   -0.000087041   -0.000056428
      4        6           0.000408921   -0.000180264   -0.000611025
      5        8           0.000015140    0.000080703   -0.000024770
      6        6          -0.000100061    0.000066236    0.000160999
      7        7          -0.000011863    0.000701682    0.000435210
      8        6          -0.000021104    0.000007121   -0.000051209
      9        6          -0.000021420    0.000021820   -0.000012929
     10        6           0.000123995   -0.000276911   -0.000308642
     11        1          -0.000004955   -0.000029228    0.000031973
     12        1          -0.000002162   -0.000009814   -0.000002628
     13        7          -0.000348948   -0.000736886   -0.000135492
     14        6          -0.000119221   -0.000356035   -0.000078761
     15        6           0.000070248    0.000315015    0.000074329
     16        6           0.000065515    0.000089340    0.000003296
     17        6           0.000054489   -0.000012900   -0.000011578
     18        6           0.000918121    0.000259093    0.000347460
     19        1          -0.000086346    0.000001117   -0.000037052
     20        1          -0.000861414   -0.000146163   -0.000483280
     21        7          -0.000083246    0.000338702   -0.000319201
     22        6           0.000183560   -0.000031282   -0.000032013
     23        6          -0.000079107    0.000089186   -0.000043512
     24        1          -0.000101653   -0.000000447    0.000066240
     25        6           0.000193190    0.000100355   -0.000031175
     26        1           0.000094201    0.000096053   -0.000002030
     27        6           0.000044542    0.000047004    0.000079758
     28        1           0.000060173   -0.000091941   -0.000027850
     29        1           0.000012144    0.000012159    0.000000973
     30        8          -0.000004536   -0.000042910   -0.000091692
     31       16          -0.000036489   -0.000109849    0.000002372
     32       16           0.000025465   -0.000009063    0.000049511
     33        6           0.000042196   -0.000078808   -0.000155816
     34        6          -0.000013369    0.000011760    0.000125272
     35        6          -0.000006847   -0.000044080    0.000006234
     36        6           0.000004004   -0.000028174    0.000016060
     37        6           0.000002370   -0.000017378   -0.000020115
     38        6           0.000016762    0.000014887    0.000032387
     39        6          -0.000022123    0.000012663   -0.000041720
     40        1           0.000005056   -0.000000941    0.000007690
     41        1          -0.000003460   -0.000006621    0.000007062
     42        1          -0.000006103    0.000005951    0.000008828
     43        6           0.000060595   -0.000021575   -0.000043023
     44        6          -0.000033841   -0.000016548    0.000005175
     45        6           0.000015208    0.000011861   -0.000017654
     46        6          -0.000013542   -0.000007506   -0.000020381
     47        6           0.000041787    0.000011540   -0.000023354
     48        6           0.000041517   -0.000049104    0.000008402
     49        1           0.000014939    0.000004234    0.000008693
     50        1          -0.000001823    0.000005941    0.000007216
     51        1           0.000013452    0.000025395    0.000002255
     52        6          -0.000008093    0.000051455    0.000006230
     53        1           0.000011554    0.000004371    0.000018714
     54        6          -0.000060534    0.000056853    0.000018918
     55        1          -0.000062691    0.000003759    0.000018170
     56        1           0.000004728    0.000046942    0.000043156
     57        6          -0.000042222    0.000043677   -0.000054098
     58        6          -0.000038995   -0.000121508    0.000020374
     59        1          -0.000002705    0.000001718   -0.000010871
     60        1           0.000003287   -0.000003333   -0.000007930
     61       35          -0.000164750    0.000060634    0.000659575
 -------------------------------------------------------------------
 Cartesian Forces:  Max     0.000918121 RMS     0.000185955

 GradGradGradGradGradGradGradGradGradGradGradGradGradGradGradGradGradGrad
 Berny optimization.
 FormGI is forming the generalized inverse of G from B-inverse, IUseBI=4.
 Internal  Forces:  Max     0.000989202 RMS     0.000152887
 Search for a saddle point.
 Step number 135 out of a maximum of  366
 All quantities printed in internal units (Hartrees-Bohrs-Radians)
 Update second derivatives using D2CorX and points  132  133  134  135
 ITU=  0  0  0  0  0  0  0  0  0  0  0  0  0  0  0  0  0  0  0  0
 ITU=  0  0  0  0  0  0  0  0  0  0  0  0  0  0  0  0  0  0  0  0
 ITU=  0  0  0  0  0  0  0  0  0  0  0  0  0  0  0  0  0  0  0  0
 ITU=  0  0  0  0  0  0  0  0  0  0  0  0  0  0  0  0  0  0  0  0
 ITU=  0  0  0  0  0  0  0  0  0  0  0  0  0  0  0  0  0  0  0  0
     Eigenvalues ---   -0.00619   0.00155   0.00253   0.00507   0.00867
     Eigenvalues ---    0.00911   0.01181   0.01239   0.01355   0.01537
     Eigenvalues ---    0.01622   0.01710   0.01736   0.01793   0.01817
     Eigenvalues ---    0.01859   0.01903   0.01911   0.01973   0.01991
     Eigenvalues ---    0.02016   0.02029   0.02079   0.02116   0.02148
     Eigenvalues ---    0.02152   0.02153   0.02170   0.02173   0.02178
     Eigenvalues ---    0.02179   0.02182   0.02184   0.02191   0.02198
     Eigenvalues ---    0.02200   0.02209   0.02226   0.02250   0.02288
     Eigenvalues ---    0.02358   0.02363   0.02394   0.02526   0.02549
     Eigenvalues ---    0.02651   0.02779   0.03158   0.03478   0.03817
     Eigenvalues ---    0.04030   0.04082   0.04251   0.04628   0.04946
     Eigenvalues ---    0.05082   0.05357   0.05931   0.06135   0.07199
     Eigenvalues ---    0.07303   0.08084   0.08485   0.08735   0.09138
     Eigenvalues ---    0.09631   0.09927   0.10404   0.11640   0.12626
     Eigenvalues ---    0.13009   0.13691   0.14578   0.15940   0.15996
     Eigenvalues ---    0.15998   0.15998   0.15998   0.15999   0.16000
     Eigenvalues ---    0.16000   0.16001   0.16001   0.16003   0.16004
     Eigenvalues ---    0.16010   0.16017   0.16021   0.16047   0.16077
     Eigenvalues ---    0.16167   0.17848   0.18113   0.19068   0.21349
     Eigenvalues ---    0.21444   0.21482   0.21947   0.22004   0.22011
     Eigenvalues ---    0.22113   0.22120   0.22177   0.22443   0.22870
     Eigenvalues ---    0.23297   0.23431   0.23517   0.23677   0.23770
     Eigenvalues ---    0.23788   0.23980   0.24739   0.24962   0.25203
     Eigenvalues ---    0.25303   0.26630   0.26806   0.27668   0.28108
     Eigenvalues ---    0.31435   0.32947   0.33577   0.33956   0.34396
     Eigenvalues ---    0.34449   0.34452   0.34463   0.34468   0.34482
     Eigenvalues ---    0.34496   0.34498   0.34533   0.34538   0.34540
     Eigenvalues ---    0.34540   0.34578   0.34608   0.34659   0.34787
     Eigenvalues ---    0.34885   0.35142   0.38387   0.38606   0.39829
     Eigenvalues ---    0.39929   0.40718   0.41523   0.41694   0.41779
     Eigenvalues ---    0.42135   0.43439   0.43760   0.44244   0.44918
     Eigenvalues ---    0.45171   0.45898   0.45938   0.45954   0.45961
     Eigenvalues ---    0.46153   0.46275   0.46412   0.46511   0.46888
     Eigenvalues ---    0.46896   0.46920   0.47131   0.47263   0.54035
     Eigenvalues ---    0.54709   0.56005   0.57056   1.26477   1.31837
     Eigenvalues ---    1.35614   1.357201000.000001000.000001000.00000
     Eigenvalues --- 1000.000001000.000001000.000001000.000001000.00000
     Eigenvalues --- 1000.000001000.000001000.000001000.000001000.00000
     Eigenvalues --- 1000.000001000.000001000.000001000.000001000.00000
     Eigenvalues --- 1000.000001000.000001000.000001000.000001000.00000
     Eigenvalues --- 1000.000001000.000001000.000001000.000001000.00000
     Eigenvalues --- 1000.000001000.000001000.000001000.000001000.00000
     Eigenvalues --- 1000.000001000.000001000.000001000.000001000.00000
     Eigenvalues --- 1000.000001000.000001000.000001000.000001000.00000
[...]
                 (A) (A) (A) (A) (A) (A) (A) (A) (A) (A) (A) (A)
                 (A) (A) (A) (A) (A) (A) (A) (A) (A) (A) (A) (A)
                 (A) (A) (A) (A) (A) (A) (A) (A) (A) (A) (A) (A)
                 (A) (A) (A) (A) (A) (A) (A) (A) (A) (A) (A) (A)
                 (A) (A) (A) (A) (A) (A) (A) (A) (A) (A) (A) (A)
                 (A) (A) (A) (A) (A) (A) (A) (A) (A) (A) (A) (A)
                 (A) (A) (A) (A) (A) (A) (A) (A) (A) (A) (A) (A)
                 (A) (A) (A) (A) (A) (A) (A) (A) (A) (A) (A) (A)
                 (A) (A) (A) (A) (A) (A) (A) (A) (A) (A) (A) (A)
                 (A) (A) (A) (A) (A) (A) (A) (A) (A) (A) (A) (A)
                 (A) (A) (A) (A) (A) (A) (A) (A) (A) (A) (A)
 The electronic state is 1-A.
 Alpha  occ. eigenvalues -- -482.95274-235.72055 -89.04536 -89.04091 -62.53342
 Alpha  occ. eigenvalues --  -56.33893 -56.33892 -56.33891 -27.48762 -23.54725
 Alpha  occ. eigenvalues --  -23.54308 -23.54256 -19.35890 -19.35743 -19.35553
 Alpha  occ. eigenvalues --  -14.51751 -14.51205 -14.46906 -10.43294 -10.43207
 Alpha  occ. eigenvalues --  -10.43151 -10.37940 -10.37528 -10.37465 -10.36705
 Alpha  occ. eigenvalues --  -10.36397 -10.36273 -10.36251 -10.35967 -10.35873
 Alpha  occ. eigenvalues --  -10.35784 -10.35367 -10.35316 -10.34886 -10.34818
 Alpha  occ. eigenvalues --  -10.34720 -10.34665 -10.34122 -10.33604 -10.33514
 Alpha  occ. eigenvalues --  -10.33194 -10.33153 -10.33032 -10.32999 -10.32799
 Alpha  occ. eigenvalues --  -10.32783 -10.32738 -10.32598 -10.32517 -10.32473
 Alpha  occ. eigenvalues --   -8.70110  -8.09548  -8.09237  -6.51786  -6.51784
 Alpha  occ. eigenvalues --   -6.51780  -6.05014  -6.04697  -6.04622  -6.04302
 Alpha  occ. eigenvalues --   -6.03987  -6.03671  -3.28234  -2.62295  -2.62294
 Alpha  occ. eigenvalues --   -2.62290  -2.62289  -2.62288  -2.14136  -2.13168
 Alpha  occ. eigenvalues --   -2.13036  -1.24869  -1.24718  -1.24483  -1.09363
 Alpha  occ. eigenvalues --   -1.08623  -1.02442  -1.01582  -0.99216  -0.98078
 Alpha  occ. eigenvalues --   -0.95323  -0.94128  -0.92543  -0.91840  -0.90419
 Alpha  occ. eigenvalues --   -0.88960  -0.88354  -0.86888  -0.86611  -0.85994
 Alpha  occ. eigenvalues --   -0.83388  -0.79267  -0.76915  -0.76365  -0.76235
 Alpha  occ. eigenvalues --   -0.75576  -0.74968  -0.74415  -0.72791  -0.72229
 Alpha  occ. eigenvalues --   -0.71061  -0.70412  -0.69290  -0.67524  -0.66320
 Alpha  occ. eigenvalues --   -0.66129  -0.65994  -0.65700  -0.64995  -0.62868
 Alpha  occ. eigenvalues --   -0.62405  -0.61612  -0.60465  -0.59532  -0.59414
 Alpha  occ. eigenvalues --   -0.58657  -0.58201  -0.57944  -0.57840  -0.57743
 Alpha  occ. eigenvalues --   -0.57561  -0.57459  -0.57336  -0.56434  -0.56253
 Alpha  occ. eigenvalues --   -0.55610  -0.55176  -0.55018  -0.54838  -0.54367
 Alpha  occ. eigenvalues --   -0.53777  -0.53549  -0.53262  -0.53050  -0.52988
 Alpha  occ. eigenvalues --   -0.52770  -0.52510  -0.51950  -0.51926  -0.50948
 Alpha  occ. eigenvalues --   -0.49988  -0.49573  -0.48878  -0.48693  -0.48410
 Alpha  occ. eigenvalues --   -0.47954  -0.46349  -0.46238  -0.45913  -0.45812
 Alpha  occ. eigenvalues --   -0.44849  -0.44771  -0.44034  -0.43757  -0.42954
 Alpha  occ. eigenvalues --   -0.42359  -0.41312  -0.40788  -0.40347  -0.38925
 Alpha  occ. eigenvalues --   -0.38039  -0.37431  -0.35993  -0.35739  -0.35224
 Alpha  occ. eigenvalues --   -0.34727  -0.34487  -0.34275  -0.33381  -0.31674
 Alpha  occ. eigenvalues --   -0.30543  -0.29606  -0.29565  -0.29543
 Alpha virt. eigenvalues --   -0.02508  -0.00512  -0.00122   0.00236   0.00647
 Alpha virt. eigenvalues --    0.01212   0.01913   0.02828   0.03132   0.03463
 Alpha virt. eigenvalues --    0.03689   0.04094   0.04491   0.05581   0.05819
 Alpha virt. eigenvalues --    0.08208   0.08605   0.08738   0.08856   0.09358
 Alpha virt. eigenvalues --    0.10019   0.10630   0.12159   0.12467   0.13375
 Alpha virt. eigenvalues --    0.13504   0.13894   0.14354   0.14412   0.15198
 Alpha virt. eigenvalues --    0.15844   0.15997   0.16216   0.17147   0.17577
 Alpha virt. eigenvalues --    0.18171   0.18310   0.18731   0.18902   0.19422
 Alpha virt. eigenvalues --    0.19708   0.20135   0.20949   0.21042   0.21420
 Alpha virt. eigenvalues --    0.21650   0.21886   0.22412   0.23095   0.23245
 Alpha virt. eigenvalues --    0.23580   0.23701   0.24057   0.24594   0.25250
 Alpha virt. eigenvalues --    0.25882   0.26614   0.26870   0.27641   0.28156
 Alpha virt. eigenvalues --    0.28423   0.28819   0.29450   0.30431   0.31286
 Alpha virt. eigenvalues --    0.31866   0.32096   0.32295   0.32645   0.32921
 Alpha virt. eigenvalues --    0.33234   0.33413   0.34225   0.34821   0.34831
 Alpha virt. eigenvalues --    0.35323   0.35687   0.36117   0.36476   0.36864
 Alpha virt. eigenvalues --    0.37373   0.37543   0.37880   0.38575   0.38730
 Alpha virt. eigenvalues --    0.39147   0.39446   0.39808   0.40482   0.40928
 Alpha virt. eigenvalues --    0.41549   0.42054   0.42532   0.42692   0.43283
 Alpha virt. eigenvalues --    0.44392   0.44629   0.45784   0.46290   0.46588
 Alpha virt. eigenvalues --    0.47373   0.47499   0.47999   0.48202   0.48686
 Alpha virt. eigenvalues --    0.49251   0.49425   0.49710   0.50804   0.50998
 Alpha virt. eigenvalues --    0.51072   0.51622   0.52106   0.52223   0.52655
 Alpha virt. eigenvalues --    0.53007   0.53430   0.53700   0.53915   0.54335
 Alpha virt. eigenvalues --    0.54650   0.54794   0.55074   0.55417   0.55630
 Alpha virt. eigenvalues --    0.56452   0.56670   0.56969   0.57336   0.57969
 Alpha virt. eigenvalues --    0.58473   0.58775   0.59981   0.60265   0.60495
 Alpha virt. eigenvalues --    0.60709   0.60985   0.61106   0.61984   0.62670
 Alpha virt. eigenvalues --    0.63621   0.63810   0.64164   0.64593   0.64866
 Alpha virt. eigenvalues --    0.65164   0.65317   0.65927   0.66179   0.66456
 Alpha virt. eigenvalues --    0.66592   0.67163   0.67515   0.68571   0.69031
 Alpha virt. eigenvalues --    0.69122   0.69719   0.69869   0.70715   0.70891
 Alpha virt. eigenvalues --    0.71163   0.71430   0.71631   0.71745   0.71882
 Alpha virt. eigenvalues --    0.72190   0.72496   0.72865   0.73033   0.73209
 Alpha virt. eigenvalues --    0.73610   0.73949   0.74119   0.74500   0.75106
 Alpha virt. eigenvalues --    0.75420   0.75620   0.76065   0.76351   0.76811
 Alpha virt. eigenvalues --    0.77311   0.77499   0.77678   0.77772   0.78095
 Alpha virt. eigenvalues --    0.78189   0.79063   0.79462   0.79649   0.80220
 Alpha virt. eigenvalues --    0.80395   0.80656   0.81120   0.81378   0.82178
 Alpha virt. eigenvalues --    0.82229   0.82552   0.82729   0.83165   0.83486
 Alpha virt. eigenvalues --    0.83690   0.83765   0.84155   0.84360   0.84484
 Alpha virt. eigenvalues --    0.84613   0.85256   0.85656   0.85879   0.85972
 Alpha virt. eigenvalues --    0.86056   0.86475   0.87037   0.87340   0.87460
 Alpha virt. eigenvalues --    0.87917   0.88306   0.88744   0.89196   0.89260
 Alpha virt. eigenvalues --    0.89623   0.90062   0.90497   0.90792   0.91022
 Alpha virt. eigenvalues --    0.91247   0.92241   0.92356   0.92596   0.93381
 Alpha virt. eigenvalues --    0.93831   0.94101   0.94702   0.95287   0.95859
 Alpha virt. eigenvalues --    0.96580   0.97206   0.97389   0.98976   0.99719
 Alpha virt. eigenvalues --    0.99996   1.00923   1.01637   1.02535   1.02782
 Alpha virt. eigenvalues --    1.03161   1.04267   1.05067   1.05910   1.06497
 Alpha virt. eigenvalues --    1.07188   1.07704   1.09125   1.09360   1.10365
 Alpha virt. eigenvalues --    1.11020   1.11692   1.11981   1.12274   1.13056
 Alpha virt. eigenvalues --    1.13363   1.13460   1.14562   1.15282   1.15864
 Alpha virt. eigenvalues --    1.16354   1.16548   1.17676   1.19461   1.19893
 Alpha virt. eigenvalues --    1.20159   1.21352   1.22145   1.22668   1.23512
 Alpha virt. eigenvalues --    1.23944   1.24440   1.25048   1.25723   1.26910
 Alpha virt. eigenvalues --    1.27365   1.27958   1.28112   1.28900   1.29007
 Alpha virt. eigenvalues --    1.29510   1.29624   1.29980   1.30280   1.31131
 Alpha virt. eigenvalues --    1.31904   1.32440   1.32802   1.33066   1.34343
 Alpha virt. eigenvalues --    1.34836   1.35096   1.35687   1.35925   1.36018
 Alpha virt. eigenvalues --    1.36432   1.36569   1.37066   1.37270   1.37679
 Alpha virt. eigenvalues --    1.38601   1.39206   1.39459   1.40422   1.41316
 Alpha virt. eigenvalues --    1.42247   1.44172   1.45976   1.47449   1.48014
 Alpha virt. eigenvalues --    1.48784   1.49834   1.51049   1.52913   1.54597
 Alpha virt. eigenvalues --    1.56330   1.56846   1.57911   1.58459   1.60191
 Alpha virt. eigenvalues --    1.60985   1.61520   1.62727   1.63578   1.64718
 Alpha virt. eigenvalues --    1.64817   1.65979   1.67768   1.68391   1.68787
 Alpha virt. eigenvalues --    1.69302   1.70028   1.70307   1.70857   1.71199
 Alpha virt. eigenvalues --    1.72935   1.73120   1.73303   1.73915   1.74794
 Alpha virt. eigenvalues --    1.75122   1.75664   1.76438   1.76726   1.76738
 Alpha virt. eigenvalues --    1.77163   1.77674   1.78139   1.78374   1.79132
 Alpha virt. eigenvalues --    1.79407   1.79821   1.80176   1.80363   1.80583
 Alpha virt. eigenvalues --    1.81027   1.81454   1.81727   1.82467   1.82610
 Alpha virt. eigenvalues --    1.83673   1.83912   1.84134   1.84653   1.85654
 Alpha virt. eigenvalues --    1.86011   1.86326   1.86722   1.87280   1.87629
 Alpha virt. eigenvalues --    1.88025   1.88586   1.88808   1.89012   1.89531
 Alpha virt. eigenvalues --    1.90075   1.90682   1.91020   1.91811   1.92263
 Alpha virt. eigenvalues --    1.92635   1.93486   1.93761   1.94787   1.95022
 Alpha virt. eigenvalues --    1.96312   1.97782   1.98188   1.99061   1.99677
 Alpha virt. eigenvalues --    2.00179   2.00468   2.01060   2.01631   2.01962
 Alpha virt. eigenvalues --    2.02511   2.02718   2.02898   2.03649   2.04145
 Alpha virt. eigenvalues --    2.04890   2.05292   2.06258   2.06402   2.06604
 Alpha virt. eigenvalues --    2.06730   2.07431   2.08574   2.08904   2.09920
 Alpha virt. eigenvalues --    2.10527   2.10958   2.11847   2.12123   2.12315
 Alpha virt. eigenvalues --    2.14515   2.16467   2.17311   2.17838   2.18354
 Alpha virt. eigenvalues --    2.18565   2.19160   2.19437   2.21120   2.22083
 Alpha virt. eigenvalues --    2.22458   2.23063   2.23475   2.23666   2.24743
 Alpha virt. eigenvalues --    2.26501   2.26832   2.29257   2.29643   2.30466
 Alpha virt. eigenvalues --    2.30919   2.31102   2.31518   2.31809   2.32464
 Alpha virt. eigenvalues --    2.33626   2.34270   2.35114   2.35529   2.36174
 Alpha virt. eigenvalues --    2.36722   2.37118   2.37539   2.38241   2.38470
 Alpha virt. eigenvalues --    2.38556   2.39065   2.39311   2.39550   2.40286
 Alpha virt. eigenvalues --    2.40842   2.41741   2.42260   2.43575   2.45245
 Alpha virt. eigenvalues --    2.46178   2.46945   2.48625   2.49081   2.49374
 Alpha virt. eigenvalues --    2.52476   2.53431   2.54802   2.56184   2.57970
 Alpha virt. eigenvalues --    2.59190   2.59300   2.60146   2.62457   2.64985
 Alpha virt. eigenvalues --    2.66565   2.66799   2.67533   2.68004   2.68222
 Alpha virt. eigenvalues --    2.68339   2.68505   2.68570   2.68770   2.68859
 Alpha virt. eigenvalues --    2.69022   2.69352   2.69485   2.69550   2.70847
 Alpha virt. eigenvalues --    2.72008   2.72584   2.75860   2.76337   2.77827
 Alpha virt. eigenvalues --    2.78549   2.80061   2.80283   2.81001   2.82228
 Alpha virt. eigenvalues --    2.82595   2.82713   2.83709   2.84364   2.85059
 Alpha virt. eigenvalues --    2.86375   2.86876   2.88116   2.88864   2.90965
 Alpha virt. eigenvalues --    2.92468   2.92644   2.95540   2.98094   2.98706
 Alpha virt. eigenvalues --    2.99092   3.01279   3.03005   3.03909   3.04161
 Alpha virt. eigenvalues --    3.04756   3.07151   3.08105   3.08634   3.10224
 Alpha virt. eigenvalues --    3.10518   3.14347   3.15656   3.15915   3.19064
 Alpha virt. eigenvalues --    3.19936   3.21073   3.22029   3.22623   3.22733
 Alpha virt. eigenvalues --    3.23227   3.23872   3.28566   3.28993   3.31229
 Alpha virt. eigenvalues --    3.36829   3.38740   3.39180   3.42249   3.44365
 Alpha virt. eigenvalues --    3.45736   3.49818   3.51895   3.54034   3.57074
 Alpha virt. eigenvalues --    3.58167   3.59552   3.61042   3.61543   3.61809
 Alpha virt. eigenvalues --    3.62138   3.64034   3.69389   3.70297   3.74854
 Alpha virt. eigenvalues --    3.75189   3.76146   3.76750   3.78037   3.78850
 Alpha virt. eigenvalues --    3.80302   3.90267   3.93519   4.02176   4.05725
          Condensed to atoms (all electrons):
 Mulliken charges:
               1
     1  Mn  -0.508827
     2  C    0.322771
     3  O   -0.035083
     4  C    0.330464
     5  O   -0.023476
     6  C    0.289430
     7  N   -0.242252
     8  C   -0.054781
     9  C    0.063683
    10  C    0.152302
    11  H    0.084477
    12  H    0.057681
    13  N   -0.031556
    14  C    0.012526
    15  C   -0.137687
    16  C    0.022521
    17  C   -0.024501
    18  C    0.027005
    19  H    0.038246
    20  H    0.050258
    21  N   -0.240161
    22  C   -0.044310
    23  C    0.051868
    24  H    0.071648
    25  C    0.102297
    26  H    0.111280
    27  C    0.108710
    28  H    0.089230
    29  H    0.049223
    30  O   -0.042009
    31  S    0.105684
    32  S    0.090939
    33  C   -0.085749
    34  C    0.001535
    35  C   -0.018569
    36  C   -0.016944
    37  C   -0.004074
    38  C   -0.084023
    39  C   -0.052057
    40  H    0.042323
    41  H    0.052960
    42  H    0.042931
    43  C   -0.053114
    44  C   -0.084774
    45  C   -0.002691
    46  C   -0.016974
    47  C   -0.020466
    48  C    0.004030
    49  H    0.043660
    50  H    0.053000
    51  H    0.041088
    52  C   -0.081817
    53  H    0.061583
    54  C    0.162595
    55  H    0.040243
    56  H    0.043788
    57  C    0.003560
    58  C   -0.026762
    59  H    0.051436
    60  H    0.053752
    61  Br  -0.998072
 Sum of Mulliken charges =  -0.00000
 Mulliken charges with hydrogens summed into heavy atoms:
               1
     1  Mn  -0.508827
     2  C    0.322771
     3  O   -0.035083
     4  C    0.330464
     5  O   -0.023476
     6  C    0.289430
     7  N   -0.242252
     8  C    0.029696
     9  C    0.121364
    10  C    0.196090
    13  N   -0.031556
    14  C    0.012526
    15  C   -0.137687
    16  C    0.060767
    17  C    0.024723
    18  C    0.077263
    21  N   -0.240161
    22  C    0.027338
    23  C    0.113452
    25  C    0.213577
    27  C    0.197940
    30  O   -0.042009
    31  S    0.105684
    32  S    0.090939
    33  C   -0.085749
    34  C    0.001535
    35  C    0.023754
    36  C    0.036016
    37  C    0.038857
    38  C   -0.084023
    39  C   -0.052057
    43  C   -0.053114
    44  C   -0.084774
    45  C    0.040969
    46  C    0.036026
    47  C    0.020622
    48  C    0.004030
    52  C   -0.081817
    54  C    0.202838
    57  C    0.057312
    58  C    0.024675
    61  Br  -0.998072
 Electronic spatial extent (au):  <R**2>=          23960.1996
 Charge=             -0.0000 electrons
 Dipole moment (field-independent basis, Debye):
    X=            -28.7833    Y=             -8.4250    Z=             -0.3507  Tot=             29.9930
 Quadrupole moment (field-independent basis, Debye-Ang):
   XX=           -404.0792   YY=           -239.0132   ZZ=           -255.3091
   XY=            -38.8079   XZ=            -16.4775   YZ=            -21.8749
 Traceless Quadrupole moment (field-independent basis, Debye-Ang):
   XX=           -104.6121   YY=             60.4540   ZZ=             44.1581
   XY=            -38.8079   XZ=            -16.4775   YZ=            -21.8749
 Octapole moment (field-independent basis, Debye-Ang**2):
  XXX=           -884.0150  YYY=            -14.7450  ZZZ=             17.1860  XYY=            -95.4323
  XXY=           -342.5140  XXZ=           -130.6136  XZZ=             -2.7224  YZZ=              6.2035
  YYZ=              5.8616  XYZ=              4.4431
 Hexadecapole moment (field-independent basis, Debye-Ang**3):
 XXXX=         -22198.7289 YYYY=          -7243.5470 ZZZZ=          -5638.4495 XXXY=          -1354.4842
 XXXZ=           -351.2044 YYYX=             57.4274 YYYZ=           -194.4513 ZZZX=           -176.5184
 ZZZY=           -138.3132 XXYY=          -4373.9999 XXZZ=          -3842.4788 YYZZ=          -1954.6474
 XXYZ=           -211.0953 YYXZ=             24.1898 ZZXY=           -166.0442
 N-N= 6.625097348853D+03 E-N=-2.778699403637D+04  KE= 6.117234378610D+03
 1\1\GINC-C402-133\FTS\RwB97XD\Gen\C32H19Br1Mn1N3O3S2\DMCINTOS\14-Dec-2
 022\0\\# wB97XD Gen Opt=(QST3) SCRF=(Solvent=TetraHydroFuran)\\Mn Tran
 sition State Reactant\\0,1\Mn,9.6811098009,2.6217088552,14.4519049348\
 C,11.4209168836,2.7309486422,15.0531566348\O,12.5053015569,2.767187606
 9,15.4029963653\C,10.2521543911,3.0713561109,12.7470807575\O,10.635877
 0093,3.294332999,11.6990712014\C,9.9128333259,0.880324985,14.071252282
 1\N,7.6916664257,2.7254839513,13.7656462271\C,5.9924903083,4.011176990
 1,12.6720977582\C,5.0430820161,3.02850978,12.9365397163\C,6.7857356205
 ,1.763376405,13.9636623858\H,5.7390735864,4.9276756746,12.1382702886\H
 ,4.0028424917,3.1567750904,12.6295335579\N,8.4039163171,5.2756632483,1
 5.6595950231\C,7.3451768238,5.185776007,16.1199941687\C,6.0396366683,4
 .9981789751,16.6892161032\C,5.9180070329,4.6556476119,18.0438971266\C,
 4.6563631782,4.4225506704,18.5802273436\C,4.9007637958,5.1228666693,15
 .8812812529\H,6.80949024,4.5733381386,18.6661470533\H,5.0056712398,5.4
 067510949,14.8340558263\N,9.0657148914,2.2892432803,16.4560693895\C,9.
 1146676131,2.9887621642,18.7477824648\C,8.1945746489,2.0016045204,19.0
 931229354\H,9.5136244667,3.6767101541,19.4932849594\C,7.2945899166,3.8
 369818171,13.1174480369\H,8.0311875103,4.6268290888,12.9356732056\C,9.
 5088372217,3.1121972003,17.4244894931\H,10.1960762307,3.9045731896,17.
 1265076347\H,4.557521815,4.1518565677,19.6327517495\O,10.027738329,-0.
 2344782608,13.8436036301\S,4.971466669,1.3157295597,16.6358151872\S,3.
 0115887709,-1.1247216218,17.2362657683\C,5.4411957225,1.874901466,13.6
 124889362\C,4.497506987,0.775611703,13.9517697023\C,3.8143560877,0.113
 6324633,12.9258538701\C,2.9479022972,-0.9393381744,13.2064179733\C,2.7
 495304594,-1.3477030117,14.5217080287\C,3.388928154,-0.6699985519,15.5
 624151078\C,4.2630582605,0.3906639712,15.2869066635\H,3.9867703946,0.4
 191374065,11.8918306982\H,2.4350413152,-1.4558432794,12.3934035069\H,2
 .0886619811,-2.186501349,14.7487355016\C,5.4955792385,-0.0000303956,17
 .7178287774\C,4.6180461252,-1.0597629994,17.9880807792\C,4.9691112717,
 -2.0530775122,18.9053545414\C,6.17887501,-1.9684847541,19.5871649297\C
 ,7.0555390157,-0.9198750132,19.3234440636\C,6.7404704354,0.060847855,1
 8.3762390878\H,4.2855767683,-2.8842142216,19.089241728\H,6.4469555326,
 -2.7341156023,20.3170151552\H,8.0156383859,-0.8678969956,19.8410594827
 \C,7.7229993819,1.1439288321,18.1003388521\H,7.8396384592,1.9046536467
 ,20.1213531317\C,8.2256165629,1.3133485901,16.809671716\H,7.93248613,0
 .602998775,16.0407148517\H,7.1305599395,0.8341889898,14.4121567746\C,3
 .5226531714,4.531557681,17.7739345952\C,3.6446224961,4.8837566555,16.4
 294982249\H,2.7557916251,4.9752879714,15.8030433113\H,2.5348016884,4.3
 410704059,18.1977981815\Br,8.7005133075,6.9744102825,11.7704533653\\Ve
 rsion=ES64L-G16RevA.03\State=1-A\HF=-6140.2309613\RMSD=2.795e-09\RMSF=
 4.616e-06\Dipole=-3.8374493,-8.246513,7.5174797\Quadrupole=27.5117834,
 -39.2217132,11.7099298,-25.9357976,35.4978284,51.6885079\PG=C01 [X(C32
 H19Br1Mn1N3O3S2)]\\@


 IT'S WHAT YOU LEARN AFTER YOU KNOW IT ALL
 THAT COUNTS.
 Job cpu time:       9 days 10 hours 36 minutes 22.1 seconds.
 Elapsed time:       0 days 19 hours 17 minutes 11.2 seconds.
 File lengths (MBytes):  RWF=    864 Int=      0 D2E=      0 Chk=     49 Scr=      1
 Normal termination of Gaussian 16 at Wed Dec 14 00:43:39 2022.
