 Entering Gaussian System, Link 0=g16
 Initial command:
 /home1/apps/gaussian/16rA.03/g16/l1.exe "/tmp/Gau-62617.inp" -scrdir="/tmp/"
 Entering Link 1 = /home1/apps/gaussian/16rA.03/g16/l1.exe PID=     62619.
  
 Copyright (c) 1988,1990,1992,1993,1995,1998,2003,2009,2016,
            Gaussian, Inc.  All Rights Reserved.
  
 This is part of the Gaussian(R) 16 program.  It is based on
 the Gaussian(R) 09 system (copyright 2009, Gaussian, Inc.),
 the Gaussian(R) 03 system (copyright 2003, Gaussian, Inc.),
 the Gaussian(R) 98 system (copyright 1998, Gaussian, Inc.),
 the Gaussian(R) 94 system (copyright 1995, Gaussian, Inc.),
 the Gaussian 92(TM) system (copyright 1992, Gaussian, Inc.),
 the Gaussian 90(TM) system (copyright 1990, Gaussian, Inc.),
 the Gaussian 88(TM) system (copyright 1988, Gaussian, Inc.),
 the Gaussian 86(TM) system (copyright 1986, Carnegie Mellon
 University), and the Gaussian 82(TM) system (copyright 1983,
 Carnegie Mellon University). Gaussian is a federally registered
 trademark of Gaussian, Inc.
  
 This software contains proprietary and confidential information,
 including trade secrets, belonging to Gaussian, Inc.
  
 This software is provided under written license and may be
 used, copied, transmitted, or stored only in accord with that
 written license.
  
 The following legend is applicable only to US Government
 contracts under FAR:
  
                    RESTRICTED RIGHTS LEGEND
  
 Use, reproduction and disclosure by the US Government is
 subject to restrictions as set forth in subparagraphs (a)
 and (c) of the Commercial Computer Software - Restricted
 Rights clause in FAR 52.227-19.
  
 Gaussian, Inc.
 340 Quinnipiac St., Bldg. 40, Wallingford CT 06492
  
  
 ---------------------------------------------------------------
 Warning -- This program may not be used in any manner that
 competes with the business of Gaussian, Inc. or will provide
 assistance to any competitor of Gaussian, Inc.  The licensee
 of this program is prohibited from giving any competitor of
 Gaussian, Inc. access to this program.  By using this program,
 the user acknowledges that Gaussian, Inc. is engaged in the
 business of creating and licensing software in the field of
 computational chemistry and represents and warrants to the
 licensee that it is not a competitor of Gaussian, Inc. and that
 it will not use this program in any manner prohibited above.
 ---------------------------------------------------------------
  

 Cite this work as:
 Gaussian 16, Revision A.03,
 M. J. Frisch, G. W. Trucks, H. B. Schlegel, G. E. Scuseria, 
 M. A. Robb, J. R. Cheeseman, G. Scalmani, V. Barone, 
 G. A. Petersson, H. Nakatsuji, X. Li, M. Caricato, A. V. Marenich, 
 J. Bloino, B. G. Janesko, R. Gomperts, B. Mennucci, H. P. Hratchian, 
 J. V. Ortiz, A. F. Izmaylov, J. L. Sonnenberg, D. Williams-Young, 
 F. Ding, F. Lipparini, F. Egidi, J. Goings, B. Peng, A. Petrone, 
 T. Henderson, D. Ranasinghe, V. G. Zakrzewski, J. Gao, N. Rega, 
 G. Zheng, W. Liang, M. Hada, M. Ehara, K. Toyota, R. Fukuda, 
 J. Hasegawa, M. Ishida, T. Nakajima, Y. Honda, O. Kitao, H. Nakai, 
 T. Vreven, K. Throssell, J. A. Montgomery, Jr., J. E. Peralta, 
 F. Ogliaro, M. J. Bearpark, J. J. Heyd, E. N. Brothers, K. N. Kudin, 
 V. N. Staroverov, T. A. Keith, R. Kobayashi, J. Normand, 
 K. Raghavachari, A. P. Rendell, J. C. Burant, S. S. Iyengar, 
 J. Tomasi, M. Cossi, J. M. Millam, M. Klene, C. Adamo, R. Cammi, 
 J. W. Ochterski, R. L. Martin, K. Morokuma, O. Farkas, 
 J. B. Foresman, and D. J. Fox, Gaussian, Inc., Wallingford CT, 2016.
 
 ******************************************
 Gaussian 16:  ES64L-G16RevA.03 25-Dec-2016
                 9-Dec-2022 
 ******************************************
 %Chk=checkpoint.chk
 %NProcShared=12
 Will use up to   12 processors via shared memory.
 ---------------------------------------------------------------
 # wB97XD Gen Opt=(QST3, Restart) SCRF=(Solvent=TetraHydroFuran)
 ---------------------------------------------------------------
 1/5=1,18=20,26=3,27=203,35=1/3(2);
 2/9=110/2;
 99//99;
 2/9=110/2;
 3/5=7,6=1,11=2,25=1,30=1,70=2205,71=1,72=20,74=-58,82=7/1,2,3;
 4/5=5,16=3,69=1/1;
 5/5=2,38=5,53=20/2;
 7//1,2,3,16;
 1/5=1,18=20,26=3,27=203/3(-5);
 2/9=110/2;
 6/7=2,8=2,9=2,10=2,19=2,28=1/1;
 99/9=1/99;

 GradGradGradGradGradGradGradGradGradGradGradGradGradGradGradGradGradGrad
 Berny optimization.
 Restoring state from the checkpoint file "checkpoint.chk".
 ONIOM results not found on unit 2.
 Title:  Mn Transition State Reactant
 Route:  # wB97XD Gen Opt=(QST3) SCRF=(Solvent=TetraHydroFuran)
 FormGI is forming the generalized inverse of G from B-inverse, IUseBI=4.
 Internal  Forces:  Max     0.006526477 RMS     0.000718089
 Search for a saddle point.
 Step number  46 out of a maximum of  366
 All quantities printed in internal units (Hartrees-Bohrs-Radians)
 Update second derivatives using D2CorX and points   44   45   46
 ITU=  0  0  0  0  0  0  0  0  0  0  0  0  0  0  0  0  0  0  0  0
 ITU=  0  0  0  0  0  0  0  0  0  0  0  0  0  0  0  0  0  0  0  0
 ITU=  0  0  0  0  0  0
     Eigenvalues ---   -0.02974  -0.01217   0.00241   0.00408   0.00723
     Eigenvalues ---    0.01083   0.01280   0.01379   0.01471   0.01527
     Eigenvalues ---    0.01564   0.01670   0.01679   0.01792   0.01810
     Eigenvalues ---    0.01849   0.01893   0.01907   0.01928   0.01963
     Eigenvalues ---    0.02001   0.02023   0.02134   0.02140   0.02142
     Eigenvalues ---    0.02144   0.02153   0.02163   0.02166   0.02169
     Eigenvalues ---    0.02172   0.02175   0.02176   0.02179   0.02179
     Eigenvalues ---    0.02181   0.02195   0.02201   0.02201   0.02223
     Eigenvalues ---    0.02262   0.02301   0.02364   0.02392   0.02476
     Eigenvalues ---    0.02494   0.02687   0.02906   0.03067   0.03434
     Eigenvalues ---    0.03632   0.03950   0.04184   0.05040   0.05138
     Eigenvalues ---    0.05924   0.06319   0.06755   0.06934   0.07176
     Eigenvalues ---    0.07559   0.08285   0.08682   0.08728   0.08985
     Eigenvalues ---    0.09615   0.10110   0.10375   0.11589   0.12382
     Eigenvalues ---    0.13643   0.14013   0.15127   0.15992   0.15995
     Eigenvalues ---    0.15996   0.15997   0.15998   0.15999   0.15999
     Eigenvalues ---    0.16000   0.16000   0.16000   0.16000   0.16002
     Eigenvalues ---    0.16003   0.16008   0.16010   0.16030   0.16037
     Eigenvalues ---    0.16367   0.17177   0.18079   0.20115   0.21331
     Eigenvalues ---    0.21395   0.21630   0.21860   0.22000   0.22015
     Eigenvalues ---    0.22103   0.22106   0.22150   0.22391   0.22719
     Eigenvalues ---    0.22910   0.23373   0.23484   0.23560   0.23592
     Eigenvalues ---    0.23711   0.23769   0.24590   0.24779   0.25014
     Eigenvalues ---    0.25290   0.25419   0.26708   0.26849   0.27675
     Eigenvalues ---    0.28114   0.32890   0.33462   0.33808   0.34307
     Eigenvalues ---    0.34448   0.34449   0.34463   0.34466   0.34481
     Eigenvalues ---    0.34496   0.34498   0.34532   0.34538   0.34539
     Eigenvalues ---    0.34539   0.34562   0.34576   0.34627   0.34654
     Eigenvalues ---    0.34862   0.34992   0.37693   0.38359   0.39633
     Eigenvalues ---    0.40150   0.40677   0.41446   0.41584   0.41733
     Eigenvalues ---    0.42043   0.43197   0.43727   0.44237   0.44892
     Eigenvalues ---    0.45132   0.45826   0.45910   0.45942   0.45956
     Eigenvalues ---    0.46150   0.46220   0.46396   0.46503   0.46821
     Eigenvalues ---    0.46886   0.46890   0.47108   0.47258   0.53923
     Eigenvalues ---    0.54639   0.56056   0.57113   1.24598   1.31830
     Eigenvalues ---    1.35602   1.356971000.000001000.000001000.00000
     Eigenvalues --- 1000.000001000.000001000.000001000.000001000.00000
     Eigenvalues --- 1000.000001000.000001000.000001000.000001000.00000
     Eigenvalues --- 1000.000001000.000001000.000001000.000001000.00000
     Eigenvalues --- 1000.000001000.000001000.000001000.000001000.00000
     Eigenvalues --- 1000.000001000.000001000.000001000.000001000.00000
     Eigenvalues --- 1000.000001000.000001000.000001000.000001000.00000
     Eigenvalues --- 1000.000001000.000001000.000001000.000001000.00000
     Eigenvalues --- 1000.000001000.000001000.000001000.000001000.00000
     Eigenvalues --- 1000.000001000.000001000.000001000.000001000.00000
     Eigenvalues --- 1000.000001000.000001000.000001000.000001000.00000
     Eigenvalues --- 1000.000001000.000001000.000001000.000001000.00000
     Eigenvalues --- 1000.000001000.000001000.000001000.000001000.00000
     Eigenvalues --- 1000.000001000.000001000.000001000.000001000.00000
     Eigenvalues --- 1000.000001000.000001000.000001000.000001000.00000
     Eigenvalues --- 1000.000001000.000001000.000001000.000001000.00000
     Eigenvalues --- 1000.000001000.000001000.000001000.000001000.00000
     Eigenvalues --- 1000.000001000.000001000.000001000.000001000.00000
     Eigenvalues --- 1000.000001000.000001000.000001000.000001000.00000
     Eigenvalues --- 1000.000001000.000001000.000001000.000001000.00000
     Eigenvalues --- 1000.000001000.000001000.000001000.000001000.00000
     Eigenvalues --- 1000.000001000.000001000.000001000.000001000.00000
     Eigenvalues --- 1000.000001000.000001000.000001000.000001000.00000
     Eigenvalues --- 1000.000001000.000001000.000001000.000001000.00000
     Eigenvalues --- 1000.000001000.000001000.000001000.000001000.00000
     Eigenvalues --- 1000.000001000.000001000.000001000.000001000.00000
     Eigenvalues --- 1000.000001000.000001000.000001000.000001000.00000
     Eigenvalues --- 1000.000001000.000001000.000001000.000001000.00000
     Eigenvalues --- 1000.000001000.000001000.000001000.000001000.00000
     Eigenvalues --- 1000.000001000.000001000.000001000.000001000.00000
     Eigenvalues --- 1000.000001000.000001000.000001000.000001000.00000
     Eigenvalues --- 1000.000001000.000001000.000001000.000001000.00000
     Eigenvalues --- 1000.000001000.000001000.000001000.000001000.00000
     Eigenvalues --- 1000.000001000.000001000.000001000.000001000.00000
     Eigenvalues --- 1000.000001000.000001000.000001000.000001000.00000
     Eigenvalues --- 1000.000001000.000001000.000001000.000001000.00000
     Eigenvalues --- 1000.000001000.000001000.000001000.000001000.00000
     Eigenvalues --- 1000.000001000.000001000.000001000.000001000.00000
     Eigenvalues --- 1000.000001000.000001000.000001000.000001000.00000
     Eigenvalues --- 1000.000001000.000001000.00000
 Eigenvectors required to have negative eigenvalues:
                          R7        R31       R5        R30       D18
   1                    0.51962   0.50165  -0.24279   0.17443   0.14319
                          A20       D14       A19       A15       A63
   1                    0.13851   0.12784  -0.12164  -0.11650  -0.11292
 QST in optimization variable space.
                        Tangent   TS vect  // Eig F  Eigenval
   1         R1         0.00044   0.00121   0.00157  -0.02974
   2         R2         0.00099   0.00258   0.00238  -0.01217
   3         R3        -0.00692   0.00632   0.00025   0.00241
   4         R4        -0.00846   0.00201   0.00028   0.00408
   5         R5         0.44910  -0.24279  -0.00008   0.00723
   6         R6        -0.03943   0.02528  -0.00042   0.01083
   7         R7        -0.30242   0.51962  -0.00036   0.01280
   8         R8         0.00023  -0.00117  -0.00007   0.01379
   9         R9         0.00017  -0.00115  -0.00013   0.01471
  10         R10        0.00054  -0.00199   0.00021   0.01527
  11         R11        0.00458   0.00190  -0.00008   0.01564
  12         R12       -0.00095  -0.00258   0.00004   0.01670
  13         R13       -0.00500  -0.00283  -0.00007   0.01679
  14         R14       -0.00142  -0.00219  -0.00017   0.01792
  15         R15       -0.00114  -0.00096  -0.00002   0.01810
  16         R16       -0.00017  -0.00011  -0.00015   0.01849
  17         R17       -0.00347  -0.00089   0.00005   0.01893
  18         R18        0.00590  -0.00385  -0.00021   0.01907
  19         R19       -0.00035  -0.00313   0.00020   0.01928
  20         R20        0.01265   0.00268  -0.00000   0.01963
  21         R21        0.01008   0.00422   0.00003   0.02001
  22         R22        0.00443   0.00080  -0.00005   0.02023
  23         R23       -0.00408   0.00705   0.00018   0.02134
  24         R24       -0.00112   0.00176  -0.00006   0.02140
  25         R25       -0.00032   0.00200   0.00005   0.02142
  26         R26       -0.00013   0.00025  -0.00005   0.02144
  27         R27       -0.00641  -0.00059   0.00002   0.02153
  28         R28       -0.02191   0.00399   0.00004   0.02163
  29         R29        0.00112  -0.00350   0.00011   0.02166
  30         R30       -0.20273   0.17443  -0.00003   0.02169
  31         R31        0.65519   0.50165  -0.00007   0.02172
  32         R32       -0.02615   0.00479  -0.00011   0.02175
  33         R33       -0.00253   0.00147  -0.00007   0.02176
  34         R34        0.00335  -0.00033  -0.00001   0.02179
  35         R35       -0.02208   0.00500  -0.00002   0.02179
  36         R36       -0.02813   0.00510  -0.00005   0.02181
  37         R37        0.00343  -0.00025   0.00019   0.02195
  38         R38       -0.00014   0.00007  -0.00002   0.02201
  39         R39        0.00015   0.00112   0.00001   0.02201
  40         R40       -0.00009  -0.00059  -0.00003   0.02223
  41         R41       -0.00363   0.00774  -0.00003   0.02262
  42         R42       -0.00520   0.00498   0.00030   0.02301
  43         R43        0.00213  -0.00298  -0.00019   0.02364
  44         R44        0.00076  -0.00259   0.00011   0.02392
  45         R45       -0.00073  -0.00218   0.00018   0.02476
  46         R46       -0.00039   0.00066   0.00056   0.02494
  47         R47       -0.00453   0.00427   0.00025   0.02687
  48         R48        0.00187  -0.00166   0.00024   0.02906
  49         R49       -0.00015   0.00007  -0.00001   0.03067
  50         R50        0.00236  -0.00181  -0.00065   0.03434
  51         R51       -0.00016  -0.00006  -0.00002   0.03632
  52         R52        0.00046  -0.00011  -0.00156   0.03950
  53         R53       -0.00016   0.00004  -0.00039   0.04184
  54         R54       -0.00209   0.00159  -0.00003   0.05040
  55         R55       -0.00070   0.00189   0.00033   0.05138
  56         R56       -0.00460   0.00436   0.00106   0.05924
  57         R57       -0.00021  -0.00042  -0.00184   0.06319
  58         R58        0.00074  -0.00213   0.00091   0.06755
  59         R59       -0.00015   0.00011  -0.00080   0.06934
  60         R60        0.00094  -0.00155  -0.00081   0.07176
  61         R61       -0.00016  -0.00006  -0.00015   0.07559
  62         R62        0.00018   0.00106   0.00211   0.08285
  63         R63       -0.00014  -0.00003  -0.00101   0.08682
  64         R64        0.00035   0.00092   0.00131   0.08728
  65         R65        0.00029  -0.00251   0.00098   0.08985
  66         R66       -0.00018  -0.00176  -0.00223   0.09615
  67         R67       -0.00479  -0.00037   0.00208   0.10110
  68         R68       -0.00021  -0.00017   0.00045   0.10375
  69         R69       -0.00018  -0.00014   0.00179   0.11589
  70         A1        -0.00815  -0.00504  -0.00227   0.12382
  71         A2         0.00884  -0.00634  -0.00023   0.13643
  72         A3         0.00283  -0.02451  -0.00004   0.14013
  73         A4         0.00402  -0.02533  -0.00737   0.15127
  74         A5         0.05217  -0.11015  -0.00002   0.15992
  75         A6         0.02202  -0.01122   0.00004   0.15995
  76         A7         0.00095  -0.03594   0.00009   0.15996
  77         A8         0.00352  -0.01404   0.00002   0.15997
  78         A9         0.01098  -0.01947  -0.00003   0.15998
  79         A10        0.07714  -0.05759  -0.00001   0.15999
  80         A11        0.01387  -0.01626  -0.00008   0.15999
  81         A12       -0.01259   0.03346  -0.00003   0.16000
  82         A13        0.03046  -0.08545   0.00002   0.16000
  83         A14       -0.00468  -0.01960  -0.00004   0.16000
  84         A15        0.06101  -0.11650  -0.00007   0.16000
  85         A16        0.08727  -0.08772  -0.00015   0.16002
  86         A17        0.00905  -0.01934   0.00005   0.16003
  87         A18        0.00979  -0.04229   0.00005   0.16008
  88         A19        0.04370  -0.12164   0.00021   0.16010
  89         A20       -0.05239   0.13851   0.00064   0.16030
  90         A21       -0.02619   0.04004   0.00007   0.16037
  91         A22       -0.00424   0.04794   0.00216   0.16367
  92         A23       -0.09188   0.09184   0.00264   0.17177
  93         A24       -0.03495   0.10780   0.00026   0.18079
  94         A25       -0.00435   0.00534   0.00106   0.20115
  95         A26       -0.00488   0.00597   0.00016   0.21331
  96         A27        0.00195  -0.00173   0.00130   0.21395
  97         A28        0.00192  -0.00395   0.00297   0.21630
  98         A29        0.00484  -0.03210   0.00190   0.21860
  99         A30        0.00220   0.01407   0.00002   0.22000
 100         A31       -0.00208  -0.00302   0.00079   0.22015
 101         A32        0.00288   0.00184  -0.00044   0.22103
 102         A33        0.00653  -0.00947   0.00028   0.22106
 103         A34       -0.00387   0.01240   0.00104   0.22150
 104         A35       -0.00257  -0.00170   0.00128   0.22391
 105         A36       -0.00155  -0.00155   0.00354   0.22719
 106         A37        0.00251   0.00271  -0.00053   0.22910
 107         A38       -0.00097  -0.00130  -0.00068   0.23373
 108         A39       -0.00014  -0.00021   0.00095   0.23484
 109         A40        0.00012  -0.00160   0.00157   0.23560
 110         A41        0.00004   0.00178   0.00003   0.23592
 111         A42       -0.00124   0.00181   0.00056   0.23711
 112         A43        0.00048   0.00225  -0.00032   0.23769
 113         A44        0.00074  -0.00389  -0.00273   0.24590
 114         A45       -0.07808   0.10888  -0.00010   0.24779
 115         A46        0.01986  -0.05035  -0.00115   0.25014
 116         A47        0.03860  -0.01015   0.00073   0.25290
 117         A48       -0.01990  -0.03051   0.00469   0.25419
 118         A49       -0.06623  -0.02455   0.00068   0.26708
 119         A50       -0.09568  -0.01782  -0.00226   0.26849
 120         A51        0.00384  -0.01219   0.00005   0.27675
 121         A52        0.00943   0.01311  -0.00050   0.28114
 122         A53       -0.01735  -0.00960   0.00031   0.32890
 123         A54        0.01155   0.00318   0.00096   0.33462
 124         A55       -0.00574  -0.00072  -0.00047   0.33808
 125         A56       -0.00586  -0.00242   0.00046   0.34307
 126         A57        0.00005  -0.00076   0.00007   0.34448
 127         A58       -0.00072   0.00161   0.00000   0.34449
 128         A59        0.00065  -0.00091  -0.00002   0.34463
 129         A60        0.00947  -0.02224   0.00004   0.34466
 130         A61        0.00832   0.00798  -0.00000   0.34481
 131         A62       -0.01808   0.01420   0.00002   0.34496
 132         A63        0.04541  -0.11292   0.00002   0.34498
 133         A64       -0.08552  -0.03220   0.00007   0.34532
 134         A65       -0.03396   0.02533  -0.00002   0.34538
 135         A66        0.02432  -0.01899   0.00001   0.34539
 136         A67        0.00966  -0.00557  -0.00000   0.34539
 137         A68        0.02056  -0.00737  -0.00025   0.34562
 138         A69        0.00741  -0.00111   0.00001   0.34576
 139         A70       -0.02794   0.00898  -0.00078   0.34627
 140         A71       -0.00608   0.00072  -0.00036   0.34654
 141         A72        0.00299  -0.00090   0.00002   0.34862
 142         A73        0.00310   0.00026   0.00027   0.34992
 143         A74        0.01124  -0.02180   0.00081   0.37693
 144         A75        0.00120  -0.00146  -0.00013   0.38359
 145         A76       -0.00196   0.00209   0.00071   0.39633
 146         A77        0.00077  -0.00024  -0.00104   0.40150
 147         A78       -0.00001   0.00022   0.00016   0.40677
 148         A79       -0.00146   0.00169   0.00013   0.41446
 149         A80        0.00139  -0.00155  -0.00035   0.41584
 150         A81        0.00236  -0.00344   0.00011   0.41733
 151         A82        0.00317  -0.00709  -0.00043   0.42043
 152         A83        0.00008  -0.00087   0.00058   0.43197
 153         A84       -0.00610  -0.00576  -0.00023   0.43727
 154         A85        0.00597   0.00623   0.00012   0.44237
 155         A86        0.00835  -0.01372  -0.00025   0.44892
 156         A87       -0.00799   0.01278   0.00047   0.45132
 157         A88       -0.00036   0.00097  -0.00095   0.45826
 158         A89       -0.00191   0.00279  -0.00027   0.45910
 159         A90        0.00114  -0.00115  -0.00009   0.45942
 160         A91        0.00073  -0.00150  -0.00005   0.45956
 161         A92        0.00093  -0.00194   0.00008   0.46150
 162         A93       -0.00055   0.00068  -0.00012   0.46220
 163         A94       -0.00038   0.00127   0.00036   0.46396
 164         A95       -0.00087   0.00025  -0.00009   0.46503
 165         A96        0.00038  -0.00020  -0.00016   0.46821
 166         A97        0.00046  -0.00000   0.00011   0.46886
 167         A98        0.00449  -0.00424   0.00007   0.46890
 168         A99       -0.00221   0.00008  -0.00008   0.47108
 169         A100      -0.00237   0.00440  -0.00004   0.47258
 170         A101      -0.00668   0.01151  -0.00001   0.53923
 171         A102       0.00190  -0.00485  -0.00000   0.54639
 172         A103       0.00444  -0.00611   0.00010   0.56056
 173         A104       0.00134  -0.00486   0.00046   0.57113
 174         A105      -0.00454   0.01107   0.00001   1.24598
 175         A106       0.00313  -0.00523   0.00027   1.31830
 176         A107      -0.00157   0.00049   0.00030   1.35602
 177         A108       0.00268  -0.00486   0.00032   1.35697
 178         A109      -0.00114   0.00457   0.000001000.00000
 179         A110      -0.00095  -0.00021   0.000001000.00000
 180         A111       0.00055   0.00025   0.000001000.00000
 181         A112       0.00039   0.00003   0.000001000.00000
 182         A113       0.00035  -0.00176  -0.000001000.00000
 183         A114      -0.00030   0.00096  -0.000001000.00000
 184         A115      -0.00006   0.00083  -0.000001000.00000
 185         A116      -0.00033   0.00369  -0.000001000.00000
 186         A117      -0.00001  -0.00276   0.000001000.00000
 187         A118       0.00030  -0.00078   0.000001000.00000
 188         A119      -0.00114  -0.00052   0.000001000.00000
 189         A120      -0.00094   0.01526  -0.000001000.00000
 190         A121       0.00209  -0.01475  -0.000001000.00000
 191         A122       0.01102  -0.00164   0.000001000.00000
 192         A123      -0.00506  -0.00172   0.000001000.00000
 193         A124      -0.00597   0.00322   0.000001000.00000
 194         A125      -0.00561   0.00478   0.000001000.00000
 195         A126       0.00284   0.00003   0.000001000.00000
 196         A127       0.00273  -0.00474   0.000001000.00000
 197         A128      -0.00477  -0.00075  -0.000001000.00000
 198         A129       0.00255   0.00026   0.000001000.00000
 199         A130       0.00221   0.00049  -0.000001000.00000
 200         A131       0.00303  -0.00234  -0.000001000.00000
 201         A132      -0.00139   0.00024  -0.000001000.00000
 202         A133      -0.00164   0.00211  -0.000001000.00000
 203         D1         0.00165   0.01013  -0.000001000.00000
 204         D2         0.00444   0.04752   0.000001000.00000
 205         D3        -0.00305   0.02520  -0.000001000.00000
 206         D4        -0.00027   0.06259   0.000001000.00000
 207         D5         0.08928  -0.06843   0.000001000.00000
 208         D6         0.09207  -0.03104   0.000001000.00000
 209         D7        -0.00953   0.04187   0.000001000.00000
 210         D8        -0.00674   0.07926   0.000001000.00000
 211         D9         0.04117  -0.10550  -0.000001000.00000
 212         D10        0.04396  -0.06811   0.000001000.00000
 213         D11       -0.04538   0.04200  -0.000001000.00000
 214         D12        0.05193   0.08640  -0.000001000.00000
 215         D13       -0.10839   0.08343  -0.000001000.00000
 216         D14       -0.01108   0.12784   0.000001000.00000
 217         D15       -0.03380   0.04481   0.000001000.00000
 218         D16        0.06351   0.08921  -0.000001000.00000
 219         D17       -0.10983   0.09879  -0.000001000.00000
 220         D18       -0.01252   0.14319  -0.000001000.00000
 221         D19       -0.00108  -0.07181  -0.000001000.00000
 222         D20       -0.00020  -0.02111   0.000001000.00000
 223         D21        0.00877  -0.07831   0.000001000.00000
 224         D22        0.00966  -0.02761   0.000001000.00000
 225         D23        0.00294  -0.09646   0.000001000.00000
 226         D24        0.00382  -0.04576  -0.000001000.00000
 227         D25       -0.06123   0.05591  -0.000001000.00000
 228         D26       -0.06035   0.10661  -0.000001000.00000
 229         D27       -0.02625   0.01047   0.000001000.00000
 230         D28       -0.02537   0.06116   0.000001000.00000
 231         D29        0.00499   0.02595  -0.000001000.00000
 232         D30        0.00387   0.03511  -0.000001000.00000
 233         D31        0.00227  -0.01128  -0.000001000.00000
 234         D32        0.00115  -0.00211   0.000001000.00000
 235         D33       -0.00726  -0.05018   0.000001000.00000
 236         D34       -0.00647  -0.02862  -0.000001000.00000
 237         D35       -0.00442  -0.01502  -0.000001000.00000
 238         D36       -0.00362   0.00654  -0.000001000.00000
 239         D37       -0.00116  -0.00419   0.000001000.00000
 240         D38        0.00175  -0.01041  -0.000001000.00000
 241         D39       -0.00137  -0.01269   0.000001000.00000
 242         D40        0.00154  -0.01890   0.000001000.00000
 243         D41        0.00261   0.03008  -0.000001000.00000
 244         D42        0.00181   0.00767  -0.000001000.00000
 245         D43        0.00239   0.02172   0.000001000.00000
 246         D44        0.00160  -0.00068   0.000001000.00000
 247         D45       -0.00368  -0.00510  -0.000001000.00000
 248         D46       -0.00265   0.00452  -0.000001000.00000
 249         D47       -0.00077  -0.01131   0.000001000.00000
 250         D48        0.00025  -0.00169  -0.000001000.00000
 251         D49        0.00186   0.02116  -0.000001000.00000
 252         D50        0.00053   0.01153   0.000001000.00000
 253         D51        0.00299   0.01180  -0.000001000.00000
 254         D52        0.00166   0.00218  -0.000001000.00000
 255         D53        0.03152   0.07176   0.000001000.00000
 256         D54        0.02900   0.07373  -0.000001000.00000
 257         D55       -0.00743  -0.01157   0.000001000.00000
 258         D56       -0.00995  -0.00960  -0.000001000.00000
 259         D57       -0.02068  -0.08341   0.000001000.00000
 260         D58       -0.03838  -0.08670   0.000001000.00000
 261         D59        0.02004   0.00447   0.000001000.00000
 262         D60        0.00234   0.00118   0.000001000.00000
 263         D61        0.00139   0.00335  -0.000001000.00000
 264         D62        0.00644   0.01439   0.000001000.00000
 265         D63        0.00392   0.00134  -0.000001000.00000
 266         D64        0.00898   0.01237   0.000001000.00000
 267         D65       -0.00049  -0.00701   0.000001000.00000
 268         D66       -0.00471  -0.01289   0.000001000.00000
 269         D67        0.00460   0.00411   0.000001000.00000
 270         D68        0.00039  -0.00177   0.000001000.00000
 271         D69        0.03266  -0.01290  -0.000001000.00000
 272         D70        0.12698   0.01318   0.000001000.00000
 273         D71        0.05022  -0.00950  -0.000001000.00000
 274         D72        0.14454   0.01657   0.000001000.00000
 275         D73        0.00370   0.00634  -0.000001000.00000
 276         D74        0.00445   0.00419   0.000001000.00000
 277         D75       -0.01356   0.00266   0.000001000.00000
 278         D76       -0.01280   0.00052   0.000001000.00000
 279         D77       -0.17730   0.02384   0.000001000.00000
 280         D78       -0.00291   0.05808   0.000001000.00000
 281         D79        0.00591   0.01580  -0.000001000.00000
 282         D80       -0.00394   0.00970   0.000001000.00000
 283         D81        0.00488  -0.03258   0.000001000.00000
 284         D82       -0.00237  -0.02343  -0.000001000.00000
 285         D83        0.00107  -0.02984   0.000001000.00000
 286         D84       -0.00196   0.02627   0.000001000.00000
 287         D85        0.00148   0.01985  -0.000001000.00000
 288         D86       -0.00109   0.06091  -0.000001000.00000
 289         D87       -0.00233   0.03401  -0.000001000.00000
 290         D88       -0.00215   0.03278   0.000001000.00000
 291         D89       -0.00338   0.00587  -0.000001000.00000
 292         D90        0.09010  -0.04202  -0.000001000.00000
 293         D91        0.09158  -0.01393  -0.000001000.00000
 294         D92        0.00572  -0.03888  -0.000001000.00000
 295         D93       -0.00345   0.00502   0.000001000.00000
 296         D94        0.00410  -0.06635   0.000001000.00000
 297         D95       -0.00508  -0.02244   0.000001000.00000
 298         D96       -0.00374  -0.02043  -0.000001000.00000
 299         D97       -0.00295  -0.00024  -0.000001000.00000
 300         D98       -0.00251   0.00636   0.000001000.00000
 301         D99       -0.00172   0.02655  -0.000001000.00000
 302         D100      -0.00511   0.01495   0.000001000.00000
 303         D101      -0.00035   0.00714  -0.000001000.00000
 304         D102       0.00129  -0.00047  -0.000001000.00000
 305         D103       0.00216  -0.01437   0.000001000.00000
 306         D104       0.00688  -0.02028   0.000001000.00000
 307         D105       0.00483  -0.01477  -0.000001000.00000
 308         D106      -0.00391   0.02175  -0.000001000.00000
 309         D107      -0.00477   0.02593  -0.000001000.00000
 310         D108       0.00664  -0.06474  -0.000001000.00000
 311         D109       0.00694  -0.06037  -0.000001000.00000
 312         D110       0.00784  -0.05473   0.000001000.00000
 313         D111       0.00815  -0.05037  -0.000001000.00000
 314         D112      -0.00283   0.01107   0.000001000.00000
 315         D113      -0.00098   0.00609  -0.000001000.00000
 316         D114      -0.00307   0.00678   0.000001000.00000
 317         D115      -0.00122   0.00179   0.000001000.00000
 318         D116       0.00659  -0.01750  -0.000001000.00000
 319         D117       0.00168  -0.00957  -0.000001000.00000
 320         D118       0.00695  -0.01323  -0.000001000.00000
 321         D119       0.00204  -0.00531  -0.000001000.00000
 322         D120       0.00158  -0.00258   0.000001000.00000
 323         D121       0.00142  -0.00322   0.000001000.00000
 324         D122      -0.00029   0.00246  -0.000001000.00000
 325         D123      -0.00045   0.00182   0.000001000.00000
 326         D124       0.00113  -0.00341   0.000001000.00000
 327         D125      -0.00100   0.00128   0.000001000.00000
 328         D126       0.00128  -0.00278  -0.000001000.00000
 329         D127      -0.00084   0.00191   0.000001000.00000
 330         D128      -0.00427   0.01029  -0.000001000.00000
 331         D129      -0.00224   0.00494   0.000001000.00000
 332         D130      -0.00217   0.00563   0.000001000.00000
 333         D131      -0.00014   0.00028   0.000001000.00000
 334         D132      -0.00269   0.00265   0.000001000.00000
 335         D133       0.00255  -0.00593  -0.000001000.00000
 336         D134      -0.00458   0.00800   0.000001000.00000
 337         D135       0.00067  -0.00057   0.000001000.00000
 338         D136       0.00135  -0.01431  -0.000001000.00000
 339         D137       0.00210  -0.01824   0.000001000.00000
 340         D138       0.00013   0.00031  -0.000001000.00000
 341         D139       0.00087  -0.00362   0.000001000.00000
 342         D140      -0.00277   0.02554   0.000001000.00000
 343         D141      -0.00689   0.02760  -0.000001000.00000
 344         D142      -0.00181   0.01154  -0.000001000.00000
 345         D143      -0.00593   0.01360   0.000001000.00000
 346         D144       0.00152  -0.00919  -0.000001000.00000
 347         D145       0.00076  -0.00388   0.000001000.00000
 348         D146       0.00065  -0.00518   0.000001000.00000
 349         D147      -0.00011   0.00014   0.000001000.00000
 350         D148      -0.00123   0.00604  -0.000001000.00000
 351         D149      -0.00059   0.00388   0.000001000.00000
 352         D150      -0.00046   0.00068  -0.000001000.00000
 353         D151       0.00018  -0.00148   0.000001000.00000
 354         D152       0.00028   0.00205  -0.000001000.00000
 355         D153       0.00170  -0.00470  -0.000001000.00000
 356         D154      -0.00036   0.00422  -0.000001000.00000
 357         D155       0.00105  -0.00254   0.000001000.00000
 358         D156       0.00121  -0.01072   0.000001000.00000
 359         D157       0.00524  -0.01266  -0.000001000.00000
 360         D158      -0.00019  -0.00406   0.000001000.00000
 361         D159       0.00384  -0.00601   0.000001000.00000
 362         D160      -0.00008   0.06101  -0.000001000.00000
 363         D161      -0.00088   0.04042   0.000001000.00000
 364         D162      -0.00422   0.06305   0.000001000.00000
 365         D163      -0.00502   0.04246  -0.000001000.00000
 366         D164       0.00593  -0.03099   0.000001000.00000
 367         D165       0.00246  -0.02448  -0.000001000.00000
 368         D166       0.00661  -0.01150   0.000001000.00000
 369         D167       0.00314  -0.00499  -0.000001000.00000
 370         D168      -0.00467  -0.00350  -0.000001000.00000
 371         D169      -0.00543  -0.00135  -0.000001000.00000
 372         D170      -0.00046   0.00238   0.000001000.00000
 373         D171      -0.00122   0.00452  -0.000001000.00000
 RFO step:  Lambda0=8.274458044D-05 Lambda=-1.26647944D-02.
 Linear search not attempted -- option 19 set.
 Maximum step size (   0.300) exceeded in Quadratic search.
    -- Step size scaled by   0.467
 Iteration  1 RMS(Cart)=  0.04670058 RMS(Int)=  0.00065795
 Iteration  2 RMS(Cart)=  0.00181876 RMS(Int)=  0.00007921
 Iteration  3 RMS(Cart)=  0.00000076 RMS(Int)=  0.00007921
 Variable       Old X    -DE/DX   Delta X   Delta X   Delta X     New X
                                 (Linear)    (Quad)   (Total)
    R1        3.49511   0.00010   0.00000   0.00180   0.00180   3.49691
    R2        3.49728   0.00094   0.00000   0.00561   0.00561   3.50289
    R3        3.37777   0.00004   0.00000  -0.00194  -0.00194   3.37583
    R4        4.00770   0.00066   0.00000  -0.00043  -0.00044   4.00726
    R5        5.91925   0.00653   0.00000   0.20970   0.20959   6.12883
    R6        4.02788   0.00014   0.00000  -0.00323  -0.00317   4.02472
    R7        7.18578  -0.00021   0.00000  -0.12748  -0.12746   7.05832
    R8        2.15362   0.00014   0.00000   0.00033   0.00033   2.15395
    R9        2.15367   0.00042   0.00000   0.00052   0.00052   2.15419
   R10        2.16650   0.00028   0.00000   0.00071   0.00071   2.16721
   R11        2.52397   0.00012   0.00000   0.00050   0.00048   2.52445
   R12        2.54118  -0.00006   0.00000  -0.00039  -0.00039   2.54079
   R13        2.63077   0.00017   0.00000   0.00045   0.00046   2.63123
   R14        2.05912  -0.00016   0.00000  -0.00037  -0.00037   2.05875
   R15        2.62083   0.00022   0.00000   0.00084   0.00085   2.62168
   R16        2.06337   0.00006   0.00000   0.00024   0.00024   2.06361
   R17        2.63628  -0.00031   0.00000  -0.00038  -0.00037   2.63590
   R18        2.63711  -0.00022   0.00000  -0.00013  -0.00014   2.63697
   R19        2.05535  -0.00025   0.00000  -0.00095  -0.00095   2.05440
   R20        2.18782  -0.00006   0.00000   0.00038   0.00027   2.18809
   R21        2.71142   0.00073   0.00000   0.00218   0.00207   2.71349
   R22        2.65076  -0.00093   0.00000  -0.00191  -0.00185   2.64891
   R23        2.65093  -0.00005   0.00000  -0.00023  -0.00013   2.65080
   R24        2.62779   0.00011   0.00000   0.00034   0.00033   2.62812
   R25        2.06129  -0.00033   0.00000  -0.00117  -0.00117   2.06012
   R26        2.06260   0.00007   0.00000   0.00018   0.00018   2.06277
   R27        2.63702   0.00007   0.00000  -0.00013  -0.00020   2.63682
   R28        2.06481  -0.00037   0.00000  -0.00157  -0.00148   2.06333
   R29        2.62975  -0.00020   0.00000  -0.00021  -0.00020   2.62955
   R30       13.88461  -0.00146   0.00000   0.11837   0.11828  14.00290
   R31       11.00615   0.00028   0.00000   0.09264   0.09274  11.09889
   R32        2.54206  -0.00016   0.00000  -0.00057  -0.00057   2.54149
   R33        2.52356   0.00022   0.00000  -0.00004  -0.00005   2.52351
   R34        2.63142   0.00024   0.00000   0.00037   0.00038   2.63180
   R35        2.06051   0.00020   0.00000   0.00022   0.00028   2.06079
   R36        2.62355  -0.00013   0.00000  -0.00032  -0.00029   2.62325
   R37        2.63576   0.00011   0.00000   0.00021   0.00027   2.63603
   R38        2.06373  -0.00002   0.00000  -0.00004  -0.00004   2.06370
   R39        2.06321  -0.00003   0.00000   0.00051   0.00051   2.06372
   R40        2.06022  -0.00025   0.00000  -0.00064  -0.00064   2.05958
   R41        3.36421   0.00025   0.00000  -0.00018  -0.00016   3.36405
   R42        3.36404  -0.00020   0.00000  -0.00114  -0.00114   3.36290
   R43        3.35472   0.00012   0.00000   0.00084   0.00084   3.35557
   R44        3.35474   0.00006   0.00000   0.00042   0.00042   3.35516
   R45        2.81370   0.00029   0.00000   0.00135   0.00135   2.81505
   R46        2.64501   0.00005   0.00000   0.00021   0.00020   2.64521
   R47        2.66261   0.00076   0.00000   0.00178   0.00180   2.66441
   R48        2.63060  -0.00006   0.00000  -0.00007  -0.00007   2.63053
   R49        2.06345   0.00000   0.00000  -0.00002  -0.00002   2.06343
   R50        2.62899  -0.00002   0.00000  -0.00007  -0.00007   2.62892
   R51        2.06216  -0.00002   0.00000  -0.00005  -0.00005   2.06210
   R52        2.63981  -0.00012   0.00000  -0.00031  -0.00031   2.63949
   R53        2.06302   0.00000   0.00000   0.00000   0.00000   2.06302
   R54        2.64972   0.00002   0.00000   0.00024   0.00024   2.64996
   R55        2.64830  -0.00001   0.00000  -0.00063  -0.00063   2.64767
   R56        2.66158   0.00033   0.00000  -0.00012  -0.00011   2.66147
   R57        2.63982  -0.00002   0.00000   0.00005   0.00005   2.63987
   R58        2.62979  -0.00005   0.00000   0.00036   0.00037   2.63015
   R59        2.06298   0.00001   0.00000   0.00002   0.00002   2.06300
   R60        2.63147  -0.00005   0.00000   0.00019   0.00019   2.63166
   R61        2.06215   0.00001   0.00000   0.00003   0.00003   2.06217
   R62        2.64355   0.00005   0.00000   0.00004   0.00003   2.64359
   R63        2.06337   0.00003   0.00000   0.00005   0.00005   2.06343
   R64        2.81323   0.00047   0.00000   0.00049   0.00049   2.81373
   R65        2.63558  -0.00027   0.00000  -0.00077  -0.00074   2.63484
   R66        2.05662   0.00000   0.00000  -0.00019  -0.00019   2.05643
   R67        2.63780  -0.00000   0.00000  -0.00007  -0.00013   2.63767
   R68        2.06334  -0.00001   0.00000  -0.00002  -0.00002   2.06332
   R69        2.06234   0.00000   0.00000   0.00008   0.00008   2.06242
    A1        1.58923  -0.00118   0.00000  -0.00852  -0.00868   1.58055
    A2        1.57870  -0.00047   0.00000  -0.00210  -0.00211   1.57659
    A3        3.12151  -0.00098   0.00000   0.00110   0.00102   3.12252
    A4        3.23863  -0.00152   0.00000  -0.00361  -0.00359   3.23504
    A5        1.81617  -0.00112   0.00000   0.01591   0.01582   1.83198
    A6        1.54571  -0.00082   0.00000  -0.00260  -0.00255   1.54316
    A7        1.13330   0.00081   0.00000   0.01746   0.01765   1.15095
    A8        1.56006  -0.00076   0.00000  -0.00352  -0.00343   1.55663
    A9        1.53228   0.00019   0.00000   0.00961   0.00969   1.54197
   A10        1.91074   0.00064   0.00000   0.02431   0.02414   1.93488
   A11        3.13493  -0.00200   0.00000  -0.01112  -0.01122   3.12371
   A12        3.09672   0.00151   0.00000   0.00895   0.00886   3.10558
   A13        1.05841   0.00058   0.00000   0.01833   0.01879   1.07721
   A14        1.65964  -0.00108   0.00000  -0.00154  -0.00151   1.65813
   A15        3.39487  -0.00159   0.00000   0.01381   0.01371   3.40858
   A16        3.48686  -0.00056   0.00000   0.02105   0.02094   3.50780
   A17        1.62644  -0.00074   0.00000  -0.00536  -0.00538   1.62106
   A18        2.71200   0.00034   0.00000   0.01536   0.01554   2.72754
   A19        2.54870   0.00083   0.00000   0.02813   0.02814   2.57684
   A20        1.24197   0.00290   0.00000  -0.01164  -0.01158   1.23039
   A21        1.61158   0.00201   0.00000   0.00249   0.00248   1.61405
   A22        1.91591  -0.00010   0.00000  -0.01493  -0.01511   1.90081
   A23        1.18942   0.00132   0.00000  -0.01238  -0.01211   1.17731
   A24        2.04086  -0.00027   0.00000  -0.01648  -0.01666   2.02420
   A25        3.20077  -0.00011   0.00000  -0.00154  -0.00154   3.19923
   A26        3.20449  -0.00010   0.00000  -0.00126  -0.00126   3.20322
   A27        3.09969   0.00009   0.00000  -0.00206  -0.00205   3.09764
   A28        3.12436  -0.00017   0.00000  -0.00121  -0.00121   3.12315
   A29        3.17247  -0.00271   0.00000  -0.03221  -0.03221   3.14026
   A30        3.25927  -0.00085   0.00000  -0.01041  -0.01041   3.24886
   A31        3.13664  -0.00124   0.00000  -0.00801  -0.00801   3.12864
   A32        3.16061  -0.00071   0.00000  -0.00685  -0.00685   3.15376
   A33        2.14970  -0.00112   0.00000  -0.00136  -0.00139   2.14831
   A34        2.07809   0.00135   0.00000   0.00146   0.00150   2.07958
   A35        2.05475  -0.00022   0.00000  -0.00011  -0.00012   2.05463
   A36        2.11572  -0.00022   0.00000  -0.00130  -0.00130   2.11443
   A37        2.08100   0.00038   0.00000   0.00179   0.00178   2.08278
   A38        2.08630  -0.00016   0.00000  -0.00053  -0.00052   2.08577
   A39        2.10639   0.00008   0.00000   0.00016   0.00016   2.10655
   A40        2.07440  -0.00011   0.00000  -0.00026  -0.00027   2.07413
   A41        2.10238   0.00004   0.00000   0.00012   0.00012   2.10250
   A42        2.16408   0.00057   0.00000   0.00198   0.00198   2.16605
   A43        2.04717  -0.00025   0.00000  -0.00072  -0.00073   2.04645
   A44        2.07173  -0.00031   0.00000  -0.00119  -0.00120   2.07054
   A45        2.29519   0.00470   0.00000   0.00016   0.00010   2.29529
   A46        2.69570   0.00132   0.00000  -0.00806  -0.00801   2.68768
   A47        3.08650  -0.00053   0.00000   0.00767   0.00779   3.09428
   A48        3.02499   0.00026   0.00000  -0.00016  -0.00011   3.02489
   A49        3.02488   0.00110   0.00000  -0.00561  -0.00563   3.01925
   A50        3.10017   0.00047   0.00000  -0.01377  -0.01383   3.08634
   A51        2.05769   0.00014   0.00000   0.00009  -0.00001   2.05769
   A52        2.11581   0.00011   0.00000   0.00215   0.00244   2.11825
   A53        2.10377  -0.00032   0.00000  -0.00288  -0.00310   2.10067
   A54        2.08916   0.00015   0.00000   0.00152   0.00165   2.09080
   A55        2.08846  -0.00021   0.00000  -0.00151  -0.00158   2.08689
   A56        2.10536   0.00005   0.00000   0.00003  -0.00004   2.10532
   A57        2.08859  -0.00009   0.00000  -0.00056  -0.00056   2.08803
   A58        2.09234   0.00012   0.00000   0.00049   0.00049   2.09283
   A59        2.10224  -0.00004   0.00000   0.00006   0.00006   2.10230
   A60        2.10850  -0.00108   0.00000  -0.00336  -0.00325   2.10525
   A61        2.07978   0.00059   0.00000   0.00291   0.00298   2.08276
   A62        2.09474   0.00049   0.00000   0.00039   0.00021   2.09495
   A63        1.13873  -0.00019   0.00000  -0.00595  -0.00584   1.13290
   A64        2.03738  -0.00008   0.00000  -0.01518  -0.01525   2.02213
   A65        2.10091   0.00076   0.00000   0.00165   0.00160   2.10252
   A66        2.12902  -0.00070   0.00000  -0.00177  -0.00172   2.12730
   A67        2.05311  -0.00005   0.00000   0.00027   0.00023   2.05334
   A68        2.11509  -0.00005   0.00000  -0.00167  -0.00147   2.11362
   A69        2.08169  -0.00005   0.00000  -0.00012  -0.00014   2.08155
   A70        2.08621   0.00011   0.00000   0.00191   0.00172   2.08793
   A71        2.07330   0.00008   0.00000   0.00026   0.00022   2.07352
   A72        2.10846  -0.00006   0.00000  -0.00031  -0.00030   2.10816
   A73        2.10142  -0.00002   0.00000   0.00006   0.00008   2.10150
   A74        1.20420   0.00210   0.00000  -0.01875  -0.01896   1.18524
   A75        2.13843  -0.00038   0.00000  -0.00188  -0.00190   2.13653
   A76        2.03828   0.00033   0.00000   0.00061   0.00061   2.03889
   A77        2.10630   0.00006   0.00000   0.00135   0.00136   2.10766
   A78        2.13778   0.00001   0.00000  -0.00033  -0.00026   2.13752
   A79        2.03858   0.00005   0.00000  -0.00007  -0.00011   2.03848
   A80        2.10677  -0.00006   0.00000   0.00045   0.00041   2.10718
   A81        1.77183   0.00017   0.00000   0.00349   0.00350   1.77532
   A82        1.77411  -0.00013   0.00000   0.00198   0.00198   1.77609
   A83        2.05148  -0.00027   0.00000  -0.00154  -0.00155   2.04993
   A84        2.14364  -0.00017   0.00000  -0.00022  -0.00019   2.14345
   A85        2.08710   0.00044   0.00000   0.00157   0.00154   2.08863
   A86        2.07517  -0.00049   0.00000  -0.00264  -0.00263   2.07254
   A87        2.13509   0.00062   0.00000   0.00360   0.00359   2.13868
   A88        2.07287  -0.00013   0.00000  -0.00096  -0.00096   2.07191
   A89        2.11218   0.00009   0.00000   0.00060   0.00060   2.11278
   A90        2.07719  -0.00008   0.00000  -0.00040  -0.00040   2.07679
   A91        2.09340  -0.00000   0.00000  -0.00017  -0.00017   2.09324
   A92        2.09604   0.00002   0.00000   0.00011   0.00011   2.09615
   A93        2.09441  -0.00000   0.00000  -0.00002  -0.00002   2.09439
   A94        2.09253  -0.00002   0.00000  -0.00009  -0.00009   2.09244
   A95        2.09013   0.00009   0.00000  -0.00000  -0.00000   2.09013
   A96        2.10396   0.00001   0.00000   0.00030   0.00030   2.10426
   A97        2.08902  -0.00009   0.00000  -0.00029  -0.00029   2.08872
   A98        2.06977  -0.00019   0.00000  -0.00093  -0.00093   2.06884
   A99        2.11206   0.00011   0.00000   0.00073   0.00073   2.11278
   A100       2.10022   0.00009   0.00000   0.00019   0.00018   2.10041
   A101       2.10507   0.00054   0.00000   0.00138   0.00139   2.10646
   A102       2.08206  -0.00036   0.00000  -0.00151  -0.00152   2.08054
   A103       2.09332  -0.00015   0.00000   0.00009   0.00008   2.09340
   A104       2.08539  -0.00015   0.00000   0.00081   0.00080   2.08620
   A105       2.10030   0.00025   0.00000  -0.00143  -0.00142   2.09888
   A106       2.09468  -0.00007   0.00000   0.00064   0.00064   2.09532
   A107       2.10943  -0.00000   0.00000  -0.00099  -0.00100   2.10843
   A108       2.07380  -0.00005   0.00000   0.00124   0.00125   2.07505
   A109       2.09856   0.00006   0.00000  -0.00034  -0.00035   2.09822
   A110       2.09040   0.00004   0.00000  -0.00001  -0.00001   2.09039
   A111       2.08899  -0.00002   0.00000   0.00001   0.00001   2.08900
   A112       2.10371  -0.00002   0.00000   0.00001   0.00001   2.10372
   A113       2.09725  -0.00002   0.00000   0.00024   0.00025   2.09749
   A114       2.09167   0.00001   0.00000  -0.00012  -0.00012   2.09155
   A115       2.09416   0.00001   0.00000  -0.00010  -0.00011   2.09405
   A116       2.10958   0.00011   0.00000  -0.00041  -0.00041   2.10917
   A117       2.09576  -0.00005   0.00000   0.00025   0.00026   2.09601
   A118       2.07756  -0.00005   0.00000   0.00019   0.00019   2.07776
   A119       2.07468  -0.00011   0.00000   0.00002   0.00001   2.07469
   A120       2.12014   0.00053   0.00000  -0.00195  -0.00196   2.11818
   A121       2.08837  -0.00042   0.00000   0.00192   0.00194   2.09030
   A122       2.14593   0.00015   0.00000   0.00202   0.00204   2.14797
   A123       2.05149  -0.00022   0.00000  -0.00068  -0.00065   2.05084
   A124       2.08573   0.00006   0.00000  -0.00132  -0.00137   2.08436
   A125       2.16641   0.00020   0.00000   0.00036   0.00036   2.16677
   A126       2.04907  -0.00005   0.00000   0.00033   0.00033   2.04940
   A127       2.06764  -0.00015   0.00000  -0.00072  -0.00072   2.06692
   A128       2.10059  -0.00018   0.00000  -0.00103  -0.00107   2.09952
   A129       2.09203   0.00006   0.00000   0.00038   0.00040   2.09244
   A130       2.09056   0.00012   0.00000   0.00065   0.00067   2.09123
   A131       2.10070  -0.00036   0.00000  -0.00105  -0.00101   2.09969
   A132       2.08673   0.00019   0.00000   0.00066   0.00064   2.08737
   A133       2.09572   0.00017   0.00000   0.00039   0.00037   2.09610
    D1        2.25523  -0.00035   0.00000  -0.00151  -0.00143   2.25380
    D2       -0.92595   0.00009   0.00000  -0.00186  -0.00179  -0.92774
    D3        0.69866   0.00035   0.00000   0.00110   0.00111   0.69976
    D4       -2.48253   0.00079   0.00000   0.00075   0.00074  -2.48178
    D5       -2.08275  -0.00025   0.00000   0.02290   0.02278  -2.05997
    D6        1.01925   0.00019   0.00000   0.02255   0.02242   1.04167
    D7       -0.93169   0.00096   0.00000   0.00632   0.00635  -0.92534
    D8        2.17031   0.00140   0.00000   0.00597   0.00599   2.17630
    D9       -3.02192   0.00040   0.00000   0.02700   0.02711  -2.99482
   D10        0.08008   0.00084   0.00000   0.02665   0.02674   0.10682
   D11       -1.93775   0.00006   0.00000   0.05358   0.05378  -1.88397
   D12        1.92101  -0.00130   0.00000   0.07073   0.07058   1.99159
   D13        2.46499   0.00112   0.00000   0.03418   0.03431   2.49929
   D14        0.04056  -0.00025   0.00000   0.05134   0.05110   0.09166
   D15        1.28727   0.00009   0.00000   0.05381   0.05394   1.34121
   D16       -1.13716  -0.00127   0.00000   0.07097   0.07074  -1.06642
   D17       -0.71432   0.00075   0.00000   0.03140   0.03156  -0.68276
   D18       -3.13874  -0.00062   0.00000   0.04855   0.04835  -3.09039
   D19        0.93203  -0.00019   0.00000   0.00450   0.00447   0.93649
   D20       -2.22815   0.00035   0.00000   0.01436   0.01434  -2.21382
   D21        2.50934  -0.00069   0.00000   0.00239   0.00236   2.51170
   D22       -0.65084  -0.00014   0.00000   0.01225   0.01223  -0.63861
   D23       -2.11171  -0.00168   0.00000   0.00075   0.00074  -2.11098
   D24        1.01129  -0.00114   0.00000   0.01061   0.01061   1.02190
   D25       -0.91410   0.00086   0.00000  -0.01561  -0.01566  -0.92976
   D26        2.20890   0.00141   0.00000  -0.00575  -0.00579   2.20311
   D27       -0.12885  -0.00072   0.00000  -0.01943  -0.01948  -0.14833
   D28        2.99416  -0.00018   0.00000  -0.00957  -0.00961   2.98455
   D29        3.02927   0.00008   0.00000   0.00112   0.00111   3.03037
   D30       -0.13439   0.00047   0.00000   0.00441   0.00442  -0.12997
   D31       -0.07323  -0.00038   0.00000   0.00143   0.00143  -0.07180
   D32        3.04630   0.00001   0.00000   0.00473   0.00474   3.05104
   D33       -3.06590  -0.00050   0.00000  -0.00871  -0.00870  -3.07460
   D34        0.05547  -0.00009   0.00000  -0.00415  -0.00414   0.05132
   D35        0.03825  -0.00011   0.00000  -0.00907  -0.00907   0.02918
   D36       -3.12356   0.00030   0.00000  -0.00452  -0.00452  -3.12808
   D37       -0.01118  -0.00012   0.00000  -0.00303  -0.00303  -0.01421
   D38        3.12460  -0.00020   0.00000   0.00047   0.00048   3.12507
   D39        3.11086  -0.00032   0.00000  -0.00559  -0.00560   3.10526
   D40       -0.03655  -0.00040   0.00000  -0.00208  -0.00209  -0.03864
   D41        0.01546   0.00048   0.00000   0.00942   0.00943   0.02489
   D42       -3.10514   0.00005   0.00000   0.00470   0.00471  -3.10043
   D43        3.13783   0.00028   0.00000   0.00689   0.00689  -3.13846
   D44        0.01723  -0.00015   0.00000   0.00218   0.00218   0.01941
   D45        0.00523  -0.00003   0.00000  -0.00483  -0.00484   0.00039
   D46       -3.08895  -0.00002   0.00000  -0.00022  -0.00024  -3.08919
   D47        3.14101  -0.00011   0.00000  -0.00133  -0.00134   3.13968
   D48        0.04684  -0.00011   0.00000   0.00327   0.00326   0.05011
   D49        0.05185   0.00044   0.00000   0.00539   0.00541   0.05726
   D50       -3.13557   0.00042   0.00000   0.00089   0.00092  -3.13465
   D51       -3.06739   0.00005   0.00000   0.00205   0.00205  -3.06534
   D52        0.02838   0.00003   0.00000  -0.00245  -0.00244   0.02594
   D53       -3.02014   0.00090   0.00000   0.01291   0.01279  -3.00734
   D54        0.09966   0.00076   0.00000   0.01456   0.01449   0.11416
   D55        0.00625   0.00019   0.00000   0.00677   0.00669   0.01294
   D56        3.12605   0.00006   0.00000   0.00842   0.00839   3.13444
   D57       -0.10089  -0.00113   0.00000  -0.01006  -0.00999  -0.11089
   D58        3.02168  -0.00108   0.00000  -0.01359  -0.01345   3.00823
   D59       -3.12340  -0.00040   0.00000  -0.00357  -0.00349  -3.12689
   D60       -0.00082  -0.00035   0.00000  -0.00709  -0.00695  -0.00777
   D61        3.13091  -0.00009   0.00000  -0.00245  -0.00243   3.12849
   D62       -0.00407   0.00007   0.00000  -0.00123  -0.00124  -0.00532
   D63        0.01133   0.00005   0.00000  -0.00409  -0.00413   0.00720
   D64       -3.12366   0.00021   0.00000  -0.00287  -0.00294  -3.12660
   D65       -0.00348  -0.00018   0.00000  -0.00394  -0.00390  -0.00738
   D66        3.13681  -0.00005   0.00000  -0.00047  -0.00044   3.13637
   D67       -3.13842  -0.00001   0.00000  -0.00271  -0.00271  -3.14112
   D68        0.00188   0.00011   0.00000   0.00076   0.00075   0.00263
   D69       -0.20549  -0.00165   0.00000   0.04331   0.04355  -0.16194
   D70        0.28545  -0.00109   0.00000   0.00631   0.00682   0.29228
   D71        2.95528  -0.00171   0.00000   0.04684   0.04700   3.00228
   D72       -2.83696  -0.00114   0.00000   0.00984   0.01028  -2.82669
   D73       -0.00677   0.00025   0.00000   0.00191   0.00180  -0.00496
   D74       -3.13970   0.00008   0.00000   0.00149   0.00144  -3.13826
   D75        3.11596   0.00028   0.00000  -0.00163  -0.00167   3.11429
   D76       -0.01697   0.00012   0.00000  -0.00205  -0.00204  -0.01900
   D77        1.13508   0.00219   0.00000   0.02293   0.02342   1.15851
   D78        3.10171   0.00061   0.00000   0.01252   0.01255   3.11425
   D79       -0.02990  -0.00003   0.00000   0.00693   0.00693  -0.02297
   D80       -0.02209   0.00010   0.00000   0.00310   0.00311  -0.01899
   D81        3.12949  -0.00054   0.00000  -0.00249  -0.00252   3.12697
   D82       -3.04984  -0.00029   0.00000  -0.00833  -0.00831  -3.05815
   D83        0.10504  -0.00024   0.00000  -0.00681  -0.00681   0.09824
   D84        0.07366   0.00025   0.00000   0.00129   0.00131   0.07497
   D85       -3.05465   0.00030   0.00000   0.00281   0.00281  -3.05183
   D86       -3.12872   0.00147   0.00000   0.01025   0.01028  -3.11844
   D87        0.01649   0.00067   0.00000   0.00689   0.00690   0.02339
   D88        0.03416   0.00060   0.00000   0.00309   0.00311   0.03727
   D89       -3.10382  -0.00019   0.00000  -0.00028  -0.00027  -3.10409
   D90       -2.10646  -0.00045   0.00000   0.00856   0.00849  -2.09797
   D91        1.01379   0.00042   0.00000   0.01572   0.01567   1.02946
   D92       -0.03062  -0.00051   0.00000  -0.00529  -0.00531  -0.03594
   D93        3.10060   0.00015   0.00000   0.00052   0.00052   3.10112
   D94        3.13190  -0.00136   0.00000  -0.01229  -0.01234   3.11956
   D95       -0.02007  -0.00069   0.00000  -0.00648  -0.00650  -0.02657
   D96       -3.13788  -0.00071   0.00000   0.00311   0.00311  -3.13478
   D97        0.01207  -0.00030   0.00000   0.00090   0.00089   0.01297
   D98        0.00011   0.00008   0.00000   0.00646   0.00648   0.00659
   D99       -3.13312   0.00049   0.00000   0.00425   0.00426  -3.12885
   D100      -2.41214   0.00058   0.00000  -0.00238  -0.00238  -2.41453
   D101       0.80901   0.00014   0.00000  -0.00180  -0.00180   0.80721
   D102      -0.80156  -0.00015   0.00000   0.00469   0.00471  -0.79686
   D103       2.42051  -0.00063   0.00000   0.00434   0.00434   2.42485
   D104       2.44733  -0.00047   0.00000   0.00332   0.00332   2.45065
   D105      -0.74530  -0.00027   0.00000   0.00290   0.00291  -0.74240
   D106       0.75328   0.00033   0.00000   0.00042   0.00042   0.75370
   D107      -2.44485   0.00053   0.00000  -0.00152  -0.00152  -2.44637
   D108       0.99208  -0.00088   0.00000  -0.02140  -0.02139   0.97069
   D109      -2.16119  -0.00097   0.00000  -0.02146  -0.02145  -2.18263
   D110      -2.10116  -0.00086   0.00000  -0.01662  -0.01661  -2.11777
   D111       1.02876  -0.00095   0.00000  -0.01668  -0.01667   1.01209
   D112       3.08801   0.00018   0.00000   0.00108   0.00107   3.08908
   D113      -0.02267  -0.00001   0.00000  -0.00022  -0.00022  -0.02289
   D114      -0.04233   0.00026   0.00000   0.00110   0.00110  -0.04123
   D115       3.13018   0.00007   0.00000  -0.00019  -0.00019   3.12999
   D116       0.14004  -0.00046   0.00000   0.00117   0.00118   0.14122
   D117      -3.08162  -0.00002   0.00000   0.00051   0.00052  -3.08110
   D118      -3.01321  -0.00055   0.00000   0.00110   0.00111  -3.01210
   D119       0.04831  -0.00011   0.00000   0.00044   0.00045   0.04876
   D120      -0.00333  -0.00017   0.00000  -0.00146  -0.00145  -0.00478
   D121      -3.12288  -0.00013   0.00000  -0.00133  -0.00133  -3.12421
   D122       3.10707   0.00003   0.00000  -0.00015  -0.00015   3.10691
   D123      -0.01249   0.00007   0.00000  -0.00003  -0.00003  -0.01252
   D124       0.04317  -0.00007   0.00000   0.00027   0.00027   0.04344
   D125      -3.11156   0.00014   0.00000   0.00079   0.00079  -3.11077
   D126      -3.12044  -0.00011   0.00000   0.00015   0.00015  -3.12029
   D127       0.00802   0.00010   0.00000   0.00067   0.00067   0.00869
   D128       3.05413   0.00042   0.00000   0.00089   0.00089   3.05502
   D129      -0.03678   0.00022   0.00000   0.00129   0.00129  -0.03549
   D130      -0.07444   0.00021   0.00000   0.00036   0.00036  -0.07407
   D131       3.11784   0.00002   0.00000   0.00076   0.00076   3.11860
   D132      -0.03642   0.00015   0.00000  -0.00171  -0.00172  -0.03813
   D133      -3.09899  -0.00032   0.00000  -0.00120  -0.00120  -3.10019
   D134       3.05325   0.00034   0.00000  -0.00217  -0.00217   3.05108
   D135      -0.00933  -0.00013   0.00000  -0.00166  -0.00166  -0.01099
   D136       0.02126  -0.00020   0.00000  -0.00467  -0.00468   0.01658
   D137      -3.06300  -0.00040   0.00000  -0.00276  -0.00277  -3.06577
   D138       3.08263   0.00030   0.00000  -0.00442  -0.00442   3.07821
   D139      -0.00162   0.00009   0.00000  -0.00250  -0.00251  -0.00413
   D140       3.02424   0.00066   0.00000   0.00429   0.00431   3.02855
   D141      -0.11304   0.00048   0.00000   0.00570   0.00571  -0.10733
   D142      -0.03644   0.00017   0.00000   0.00393   0.00394  -0.03251
   D143       3.10946  -0.00000   0.00000   0.00534   0.00534   3.11480
   D144      -3.04691  -0.00043   0.00000   0.00153   0.00152  -3.04538
   D145       0.08079  -0.00021   0.00000   0.00164   0.00164   0.08244
   D146       0.03851  -0.00023   0.00000  -0.00042  -0.00042   0.03809
   D147      -3.11698  -0.00001   0.00000  -0.00030  -0.00030  -3.11728
   D148      -0.03686   0.00010   0.00000   0.00186   0.00186  -0.03500
   D149       3.12107   0.00014   0.00000   0.00047   0.00047   3.12155
   D150       3.11875  -0.00012   0.00000   0.00174   0.00174   3.12049
   D151      -0.00651  -0.00008   0.00000   0.00035   0.00035  -0.00615
   D152      -0.00188   0.00017   0.00000  -0.00037  -0.00036  -0.00224
   D153      -3.11739  -0.00002   0.00000  -0.00217  -0.00217  -3.11956
   D154       3.12335   0.00013   0.00000   0.00102   0.00102   3.12437
   D155       0.00784  -0.00007   0.00000  -0.00078  -0.00078   0.00706
   D156       0.03840  -0.00031   0.00000  -0.00253  -0.00254   0.03586
   D157      -3.10743  -0.00013   0.00000  -0.00393  -0.00393  -3.11136
   D158      -3.12900  -0.00011   0.00000  -0.00075  -0.00075  -3.12976
   D159       0.00835   0.00006   0.00000  -0.00214  -0.00214   0.00621
   D160       2.05068   0.00135   0.00000  -0.00316  -0.00314   2.04754
   D161      -1.09944   0.00093   0.00000  -0.00091  -0.00088  -1.10031
   D162      -1.08656   0.00117   0.00000  -0.00174  -0.00172  -1.08828
   D163       2.04651   0.00075   0.00000   0.00052   0.00054   2.04705
   D164      -0.06900  -0.00013   0.00000  -0.00323  -0.00325  -0.07226
   D165       3.05917  -0.00019   0.00000  -0.00476  -0.00476   3.05441
   D166       3.08066   0.00026   0.00000  -0.00538  -0.00540   3.07525
   D167      -0.07436   0.00021   0.00000  -0.00691  -0.00691  -0.08127
   D168       0.00899   0.00001   0.00000   0.00358   0.00361   0.01260
   D169      -3.14131   0.00017   0.00000   0.00401   0.00398  -3.13733
   D170      -3.13130  -0.00011   0.00000   0.00011   0.00015  -3.13115
   D171       0.00158   0.00005   0.00000   0.00053   0.00052   0.00210
         Item               Value     Threshold  Converged?
 Maximum Force            0.006526     0.000450     NO 
 RMS     Force            0.000718     0.000300     NO 
 Maximum Displacement     0.224288     0.001800     NO 
 RMS     Displacement     0.047082     0.001200     NO 
 Predicted change in Energy=-1.970712D-03
 GradGradGradGradGradGradGradGradGradGradGradGradGradGradGradGradGradGrad

 Stoichiometry    C32H19BrMnN3O3S2
 Framework group  C1[X(C32H19BrMnN3O3S2)]
 Deg. of freedom   177
 Full point group                 C1      NOp   1
 Largest Abelian subgroup         C1      NOp   1
 Largest concise Abelian subgroup C1      NOp   1
                         Standard orientation:                         
 ---------------------------------------------------------------------
 Center     Atomic      Atomic             Coordinates (Angstroms)
 Number     Number       Type             X           Y           Z
 ---------------------------------------------------------------------
      1         25           0        2.371120   -1.015666   -0.867149
      2          6           0        3.525222   -2.422208   -0.529532
      3          8           0        4.195011   -3.329386   -0.363390
      4          6           0        3.530362   -0.348783   -2.150679
      5          8           0        4.162865    0.028235   -3.020896
      6          6           0        1.557686   -1.974144   -2.136369
      7          7           0        1.171306    0.711097   -1.141871
      8          6           0        1.004781    3.099474   -1.131492
      9          6           0       -0.375269    3.029380   -1.302623
     10          6           0       -0.144043    0.656689   -1.368761
     11          1           0        1.514072    4.058794   -1.046559
     12          1           0       -0.978993    3.938476   -1.342112
     13          7           0        2.454616    0.799504    1.819257
     14          6           0        1.758411    1.696600    2.045576
     15          6           0        0.786913    2.742027    2.204109
     16          6           0       -0.544031    2.370352    2.439330
     17          6           0       -1.542252    3.338706    2.439308
     18          6           0        1.119153    4.086996    1.984193
     19          1           0       -0.788706    1.320525    2.602016
     20          1           0        2.152445    4.379563    1.787000
     21          7           0        1.099572   -1.768252    0.666729
     22          6           0        0.785659   -2.463447    2.937971
     23          6           0       -0.576553   -2.652006    2.717944
     24          1           0        1.230902   -2.658494    3.914165
     25          6           0        1.738999    1.925780   -1.041744
     26          1           0        2.817008    1.953138   -0.869187
     27          6           0        1.583536   -2.003544    1.899276
     28          1           0        2.645021   -1.811772    2.055214
     29          1           0       -2.579449    3.044718    2.610555
     30          8           0        1.018155   -2.586285   -2.942237
     31         16           0       -2.635232    0.159526    0.690166
     32         16           0       -5.686435   -0.300298   -0.109634
     33          6           0       -0.975156    1.776153   -1.425878
     34          6           0       -2.432947    1.600216   -1.676841
     35          6           0       -3.004583    2.225717   -2.791014
     36          6           0       -4.348185    2.043541   -3.106059
     37          6           0       -5.145997    1.225073   -2.312997
     38          6           0       -4.607346    0.628714   -1.170566
     39          6           0       -3.256817    0.816573   -0.843119
     40          1           0       -2.373053    2.842595   -3.433604
     41          1           0       -4.772141    2.526494   -3.987973
     42          1           0       -6.193307    1.053995   -2.569303
     43          6           0       -3.312649   -1.486029    0.679267
     44          6           0       -4.657830   -1.676810    0.337014
     45          6           0       -5.228493   -2.949737    0.411203
     46          6           0       -4.468922   -4.021924    0.870141
     47          6           0       -3.132482   -3.836309    1.214891
     48          6           0       -2.531398   -2.577917    1.104698
     49          1           0       -6.271075   -3.092693    0.120719
     50          1           0       -4.919138   -5.013054    0.946308
     51          1           0       -2.532227   -4.682584    1.555183
     52          6           0       -1.090609   -2.414744    1.443083
     53          1           0       -1.233361   -2.979423    3.526647
     54          6           0       -0.195389   -2.013799    0.452177
     55          1           0       -0.564277   -1.904495   -0.565758
     56          1           0       -0.580432   -0.325131   -1.534506
     57          6           0       -1.214533    4.675793    2.211725
     58          6           0        0.112771    5.047931    1.992574
     59          1           0        0.366000    6.095220    1.818845
     60          1           0       -1.999156    5.435070    2.206930
     61         35           0        5.786679    0.042863    0.211948
 ---------------------------------------------------------------------
 Rotational constants (GHZ):           0.1001008           0.0523050           0.0453081
 Basis read from rwf:  (5D, 7F)
 There are   800 symmetry adapted cartesian basis functions of A   symmetry.
 There are   749 symmetry adapted basis functions of A   symmetry.
   749 basis functions,  1349 primitive gaussians,   800 cartesian basis functions
   174 alpha electrons      174 beta electrons
       nuclear repulsion energy      6653.5547454331 Hartrees.
 NAtoms=   61 NActive=   61 NUniq=   61 SFac= 1.00D+00 NAtFMM=   60 NAOKFM=T Big=T
 Integral buffers will be    131072 words long.
 Raffenetti 2 integral format.
 Two-electron integral symmetry is turned on.
 Nuclear repulsion after empirical dispersion term =     6653.4862713408 Hartrees.
 ------------------------------------------------------------------------------
 Polarizable Continuum Model (PCM)
 =================================
 Model                : PCM.
 Atomic radii         : UFF (Universal Force Field).
 Polarization charges : Total charges.
 Charge compensation  : None.
 Solution method      : On-the-fly selection.
 Cavity type          : Scaled VdW (van der Waals Surface) (Alpha=1.100).
 Cavity algorithm     : GePol (No added spheres)
                        Default sphere list used, NSphG=   61.
                        Lebedev-Laikov grids with approx.  5.0 points / Ang**2.
                        Smoothing algorithm: York/Karplus (Gamma=1.0000).
                        Polarization charges: spherical gaussians, with
                                              point-specific exponents (IZeta= 3).
                        Self-potential: point-specific (ISelfS= 7).
                        Self-field    : sphere-specific E.n sum rule (ISelfD= 2).
 1st derivatives      : Analytical E(r).r(x)/FMM algorithm (CHGder, D1EAlg=3).
                        Cavity 1st derivative terms included.
 Solvent              : TetraHydroFuran, Eps=   7.425700 Eps(inf)=   1.974025
 ------------------------------------------------------------------------------
 One-electron integrals computed using PRISM.
 PrsmSu:  requested number of processors reduced to:  11 ShMem   1 Linda.
 NBasis=   749 RedAO= T EigKep=  2.26D-04  NBF=   749
 NBsUse=   749 1.00D-06 EigRej= -1.00D+00 NBFU=   749
 Initial guess from the checkpoint file:  "checkpoint.chk"
 B after Tr=    -0.000000   -0.000000    0.000000
         Rot=    0.999975    0.003077    0.002817   -0.005732 Ang=   0.81 deg.
 ExpMin= 3.93D-02 ExpMax= 2.77D+05 ExpMxC= 1.70D+04 IAcc=3 IRadAn=         5 AccDes= 0.00D+00
 Harris functional with IExCor= 4639 and IRadAn=       5 diagonalized for initial guess.
 HarFok:  IExCor= 4639 AccDes= 0.00D+00 IRadAn=         5 IDoV= 1 UseB2=F ITyADJ=14
 ICtDFT=  3500011 ScaDFX=  1.000000  1.000000  1.000000  1.000000
 FoFCou: FMM=F IPFlag=           0 FMFlag=      100000 FMFlg1=        2001
         NFxFlg=           0 DoJE=T BraDBF=F KetDBF=T FulRan=T
         wScrn=  0.000000 ICntrl=       500 IOpCl=  0 I1Cent=   200000004 NGrid=           0
         NMat0=    1 NMatS0=      1 NMatT0=    0 NMatD0=    1 NMtDS0=    0 NMtDT0=    0
 Petite list used in FoFCou.
 Requested convergence on RMS density matrix=1.00D-08 within 128 cycles.
 Requested convergence on MAX density matrix=1.00D-06.
 Requested convergence on             energy=1.00D-06.
 No special actions if energy rises.
 CoulSu:  requested number of processors reduced to:   9 ShMem   1 Linda.
 Inv3:  Mode=1 IEnd=    68659968.
 Iteration    1 A*A^-1 deviation from unit magnitude is 3.89D-15 for   4378.
 Iteration    1 A*A^-1 deviation from orthogonality  is 1.93D-15 for   4316   2943.
 Iteration    1 A^-1*A deviation from unit magnitude is 3.66D-15 for   4378.
 Iteration    1 A^-1*A deviation from orthogonality  is 2.44D-15 for   3527    217.
 CoulSu:  requested number of processors reduced to:   9 ShMem   1 Linda.
 CoulSu:  requested number of processors reduced to:   9 ShMem   1 Linda.
 Error on total polarization charges =  0.02445
 SCF Done:  E(RwB97XD) =  -6140.22939521     A.U. after   16 cycles
            NFock= 16  Conv=0.78D-08     -V/T= 2.0038
 PrsmSu:  requested number of processors reduced to:  11 ShMem   1 Linda.
 D1PCM: PCM CHGder 1st derivatives, ID1Alg=3 FixD1E=F DoIter=F DoCFld=F I1PDM=0.
 CoulSu:  requested number of processors reduced to:  10 ShMem   1 Linda.
 CoulSu:  requested number of processors reduced to:  10 ShMem   1 Linda.
 Calling FoFJK, ICntrl=      2127 FMM=T ISym2X=0 I1Cent= 0 IOpClX= 0 NMat=1 NMatS=1 NMatT=0.
 ***** Axes restored to original set *****
 -------------------------------------------------------------------
 Center     Atomic                   Forces (Hartrees/Bohr)
 Number     Number              X              Y              Z
 -------------------------------------------------------------------
      1       25           0.004369954   -0.003584618   -0.003158237
      2        6          -0.000264006    0.000044220   -0.000068458
      3        8           0.000016856    0.000128719   -0.000133741
      4        6          -0.001715365    0.000303740    0.000490135
      5        8           0.000623689   -0.000277211   -0.000127984
      6        6          -0.000125858   -0.000060661    0.000332721
      7        7          -0.000358636    0.000090605    0.001170954
      8        6           0.000183123    0.000069915   -0.000018122
      9        6           0.000011558   -0.000025555   -0.000132313
     10        6           0.000262829    0.000253934    0.000116757
     11        1          -0.000006655    0.000044872   -0.000096375
     12        1           0.000032152    0.000083125    0.000014218
     13        7          -0.001983366    0.003838192    0.000690682
     14        6           0.000526823   -0.001528110    0.001014553
     15        6          -0.001527218   -0.001036250   -0.002239390
     16        6           0.000223399    0.000034097    0.000599382
     17        6          -0.000085953    0.000068632    0.000051263
     18        6           0.000325733    0.001034205    0.000120554
     19        1           0.000036753   -0.000223302    0.000192327
     20        1           0.000930763   -0.000653396    0.000882251
     21        7          -0.000633372    0.000779263    0.000084780
     22        6          -0.000039534    0.000375178   -0.000189759
     23        6           0.000019451   -0.000174886   -0.000023279
     24        1          -0.000428616    0.000224893   -0.000527234
     25        6          -0.000162979    0.000309382   -0.000050728
     26        1           0.000078170    0.000000867    0.000059161
     27        6           0.000023293   -0.000119514   -0.000043414
     28        1          -0.000425957    0.000255351   -0.000081464
     29        1           0.000011965   -0.000024827   -0.000066286
     30        8           0.000041580   -0.000104503   -0.000241233
     31       16           0.000083273    0.000190405   -0.000066921
     32       16           0.000029062    0.000037489   -0.000039937
     33        6           0.000075668   -0.000369861    0.000084157
     34        6           0.000078426    0.000225614    0.000174023
     35        6          -0.000036704   -0.000063407    0.000021114
     36        6          -0.000006973    0.000003076   -0.000049808
     37        6          -0.000046776   -0.000050930   -0.000010209
     38        6           0.000066774    0.000053788   -0.000122295
     39        6          -0.000108049   -0.000004020   -0.000054127
     40        1           0.000012117   -0.000061974   -0.000039270
     41        1           0.000001725   -0.000003474   -0.000012879
     42        1           0.000001268   -0.000008914   -0.000015433
     43        6          -0.000079454    0.000172034   -0.000182567
     44        6          -0.000028587   -0.000092196    0.000018599
     45        6           0.000020654    0.000009286   -0.000001779
     46        6          -0.000049559    0.000011862   -0.000006044
     47        6          -0.000099337    0.000033715   -0.000042916
     48        6           0.000414580   -0.000288857    0.000311453
     49        1          -0.000010284   -0.000008174    0.000015174
     50        1          -0.000008653   -0.000015381   -0.000018527
     51        1          -0.000008303    0.000017683    0.000017680
     52        6          -0.000016616    0.000195805    0.000003184
     53        1          -0.000021351    0.000010000    0.000017829
     54        6          -0.000128918    0.000102445    0.000110788
     55        1          -0.000109648   -0.000036372   -0.000118080
     56        1           0.000042557    0.000047102    0.000129300
     57        6          -0.000079970    0.000014999    0.000066569
     58        6           0.000182011    0.000436714    0.000292901
     59        1           0.000028662   -0.000013977   -0.000013940
     60        1          -0.000001288   -0.000044463    0.000011424
     61       35          -0.000156881   -0.000626376    0.000898819
 -------------------------------------------------------------------
 Cartesian Forces:  Max     0.004369954 RMS     0.000690762

 GradGradGradGradGradGradGradGradGradGradGradGradGradGradGradGradGradGrad
 Berny optimization.
 FormGI is forming the generalized inverse of G from B-inverse, IUseBI=4.
 Internal  Forces:  Max     0.003265629 RMS     0.000311610
 Search for a saddle point.
 Step number  47 out of a maximum of  366
 All quantities printed in internal units (Hartrees-Bohrs-Radians)
 Update second derivatives using D2CorX and points   46   47
 ITU=  0  0  0  0  0  0  0  0  0  0  0  0  0  0  0  0  0  0  0  0
 ITU=  0  0  0  0  0  0  0  0  0  0  0  0  0  0  0  0  0  0  0  0
 ITU=  0  0  0  0  0  0  0
     Eigenvalues ---   -0.03231   0.00044   0.00335   0.00410   0.00719
     Eigenvalues ---    0.01128   0.01282   0.01384   0.01475   0.01527
     Eigenvalues ---    0.01559   0.01669   0.01679   0.01792   0.01810
     Eigenvalues ---    0.01849   0.01892   0.01909   0.01927   0.01961
     Eigenvalues ---    0.02000   0.02023   0.02135   0.02139   0.02142
     Eigenvalues ---    0.02144   0.02153   0.02163   0.02166   0.02169
     Eigenvalues ---    0.02172   0.02175   0.02176   0.02179   0.02179
     Eigenvalues ---    0.02181   0.02196   0.02201   0.02201   0.02223
     Eigenvalues ---    0.02266   0.02302   0.02366   0.02399   0.02482
     Eigenvalues ---    0.02496   0.02690   0.02911   0.03066   0.03420
     Eigenvalues ---    0.03623   0.03960   0.04176   0.05040   0.05139
     Eigenvalues ---    0.05918   0.06345   0.06755   0.06913   0.07204
     Eigenvalues ---    0.07638   0.08285   0.08641   0.08757   0.08989
     Eigenvalues ---    0.09712   0.10153   0.10397   0.11554   0.12320
     Eigenvalues ---    0.13701   0.13947   0.15449   0.15993   0.15995
     Eigenvalues ---    0.15996   0.15997   0.15998   0.15999   0.15999
     Eigenvalues ---    0.16000   0.16000   0.16000   0.16000   0.16002
     Eigenvalues ---    0.16003   0.16008   0.16011   0.16033   0.16038
     Eigenvalues ---    0.16397   0.17363   0.18052   0.19986   0.21333
     Eigenvalues ---    0.21421   0.21654   0.21897   0.22000   0.22020
     Eigenvalues ---    0.22103   0.22106   0.22160   0.22395   0.22796
     Eigenvalues ---    0.22934   0.23392   0.23484   0.23586   0.23598
     Eigenvalues ---    0.23717   0.23769   0.24640   0.24786   0.25020
     Eigenvalues ---    0.25290   0.25619   0.26718   0.26893   0.27678
     Eigenvalues ---    0.28116   0.32892   0.33471   0.33807   0.34313
     Eigenvalues ---    0.34448   0.34449   0.34463   0.34466   0.34481
     Eigenvalues ---    0.34496   0.34498   0.34532   0.34538   0.34539
     Eigenvalues ---    0.34539   0.34562   0.34576   0.34635   0.34657
     Eigenvalues ---    0.34862   0.34992   0.37721   0.38365   0.39631
     Eigenvalues ---    0.40131   0.40685   0.41451   0.41569   0.41734
     Eigenvalues ---    0.42040   0.43219   0.43735   0.44240   0.44893
     Eigenvalues ---    0.45126   0.45837   0.45912   0.45942   0.45956
     Eigenvalues ---    0.46150   0.46225   0.46398   0.46503   0.46835
     Eigenvalues ---    0.46886   0.46890   0.47108   0.47257   0.53935
     Eigenvalues ---    0.54640   0.56060   0.57113   1.24659   1.31830
     Eigenvalues ---    1.35602   1.356971000.000001000.000001000.00000
     Eigenvalues --- 1000.000001000.000001000.000001000.000001000.00000
     Eigenvalues --- 1000.000001000.000001000.000001000.000001000.00000
     Eigenvalues --- 1000.000001000.000001000.000001000.000001000.00000
     Eigenvalues --- 1000.000001000.000001000.000001000.000001000.00000
     Eigenvalues --- 1000.000001000.000001000.000001000.000001000.00000
     Eigenvalues --- 1000.000001000.000001000.000001000.000001000.00000
     Eigenvalues --- 1000.000001000.000001000.000001000.000001000.00000
     Eigenvalues --- 1000.000001000.000001000.000001000.000001000.00000
     Eigenvalues --- 1000.000001000.000001000.000001000.000001000.00000
     Eigenvalues --- 1000.000001000.000001000.000001000.000001000.00000
     Eigenvalues --- 1000.000001000.000001000.000001000.000001000.00000
     Eigenvalues --- 1000.000001000.000001000.000001000.000001000.00000
[...]
   D24        1.02421   0.00103   0.00000  -0.07453  -0.07419   0.95002
   D25       -0.90576  -0.00072   0.00000  -0.02000  -0.02009  -0.92585
   D26        2.22842  -0.00089   0.00000  -0.04231  -0.04226   2.18616
   D27       -0.10657  -0.00038   0.00000  -0.07082  -0.07149  -0.17806
   D28        3.02760  -0.00055   0.00000  -0.09313  -0.09367   2.93394
   D29        3.04167  -0.00019   0.00000  -0.04249  -0.04268   2.99898
   D30       -0.12479  -0.00008   0.00000  -0.02238  -0.02248  -0.14727
   D31       -0.06963   0.00014   0.00000  -0.02193  -0.02198  -0.09161
   D32        3.04711   0.00026   0.00000  -0.00182  -0.00178   3.04532
   D33       -3.07850   0.00023   0.00000   0.02626   0.02631  -3.05220
   D34        0.04511   0.00019   0.00000   0.03894   0.03897   0.08408
   D35        0.03394  -0.00007   0.00000   0.00664   0.00668   0.04062
   D36       -3.12563  -0.00012   0.00000   0.01933   0.01934  -3.10629
   D37       -0.01262  -0.00004   0.00000  -0.00694  -0.00695  -0.01957
   D38        3.12446   0.00012   0.00000  -0.00898  -0.00898   3.11549
   D39        3.11135  -0.00003   0.00000  -0.01431  -0.01436   3.09698
   D40       -0.03476   0.00013   0.00000  -0.01635  -0.01639  -0.05115
   D41        0.01707  -0.00006   0.00000   0.01230   0.01235   0.02941
   D42       -3.10591  -0.00001   0.00000  -0.00079  -0.00075  -3.10666
   D43        3.14133  -0.00005   0.00000   0.00506   0.00506  -3.13680
   D44        0.01835   0.00001   0.00000  -0.00803  -0.00803   0.01032
   D45        0.00288  -0.00007   0.00000   0.00238   0.00237   0.00524
   D46       -3.08417  -0.00020   0.00000  -0.03386  -0.03394  -3.11811
   D47        3.13997   0.00009   0.00000   0.00035   0.00035   3.14032
   D48        0.05292  -0.00005   0.00000  -0.03588  -0.03595   0.01697
   D49        0.05152  -0.00007   0.00000   0.01750   0.01755   0.06908
   D50        3.14032   0.00005   0.00000   0.05273   0.05275  -3.09012
   D51       -3.06487  -0.00019   0.00000  -0.00291  -0.00293  -3.06780
   D52        0.02392  -0.00007   0.00000   0.03232   0.03227   0.05619
   D53       -3.01962  -0.00080   0.00000   0.01625   0.01604  -3.00358
   D54        0.10360  -0.00072   0.00000   0.00444   0.00428   0.10787
   D55        0.01343   0.00012   0.00000  -0.01286  -0.01289   0.00054
   D56        3.13665   0.00020   0.00000  -0.02467  -0.02466   3.11199
   D57       -0.10787   0.00104   0.00000  -0.01136  -0.01142  -0.11929
   D58        3.02475   0.00091   0.00000  -0.01890  -0.01854   3.00622
   D59       -3.13780   0.00008   0.00000   0.01849   0.01824  -3.11956
   D60       -0.00518  -0.00005   0.00000   0.01095   0.01113   0.00595
   D61        3.12864  -0.00003   0.00000  -0.00043  -0.00042   3.12822
   D62       -0.00783  -0.00011   0.00000   0.00575   0.00568  -0.00215
   D63        0.00561  -0.00012   0.00000   0.01149   0.01145   0.01706
   D64       -3.13086  -0.00020   0.00000   0.01767   0.01755  -3.11331
   D65       -0.00591   0.00004   0.00000   0.00311   0.00315  -0.00275
   D66        3.13813   0.00006   0.00000  -0.00430  -0.00422   3.13391
   D67        3.14085  -0.00004   0.00000   0.00933   0.00930  -3.13303
   D68        0.00170  -0.00002   0.00000   0.00193   0.00193   0.00363
   D69       -0.21867   0.00068   0.00000   0.04415   0.04635  -0.17232
   D70        0.26967   0.00022   0.00000  -0.02717  -0.02730   0.24237
   D71        2.93199   0.00081   0.00000   0.05177   0.05354   2.98553
   D72       -2.86286   0.00035   0.00000  -0.01956  -0.02011  -2.88297
   D73       -0.00863  -0.00003   0.00000  -0.00201  -0.00222  -0.01085
   D74        3.14142   0.00003   0.00000  -0.00129  -0.00145   3.13997
   D75        3.12402  -0.00015   0.00000  -0.00956  -0.00938   3.11464
   D76       -0.00912  -0.00010   0.00000  -0.00884  -0.00861  -0.01773
   D77        1.14395  -0.00101   0.00000   0.06413   0.06447   1.20842
   D78        3.11207   0.00007   0.00000  -0.02523  -0.02508   3.08699
   D79       -0.02511   0.00022   0.00000  -0.02491  -0.02488  -0.04999
   D80       -0.02244   0.00024   0.00000  -0.00389  -0.00384  -0.02627
   D81        3.12357   0.00038   0.00000  -0.00357  -0.00364   3.11993
   D82       -3.05167  -0.00025   0.00000   0.00057   0.00050  -3.05117
   D83        0.10194  -0.00008   0.00000   0.00580   0.00568   0.10762
   D84        0.08270  -0.00042   0.00000  -0.02118  -0.02110   0.06160
   D85       -3.04688  -0.00025   0.00000  -0.01595  -0.01592  -3.06280
   D86       -3.11425  -0.00059   0.00000  -0.01591  -0.01583  -3.13008
   D87        0.02621  -0.00016   0.00000  -0.02051  -0.02048   0.00573
   D88        0.03961  -0.00040   0.00000  -0.00785  -0.00771   0.03191
   D89       -3.10311   0.00004   0.00000  -0.01244  -0.01235  -3.11546
   D90       -2.11351   0.00038   0.00000   0.04459   0.04470  -2.06880
   D91        1.01577   0.00019   0.00000   0.03651   0.03657   1.05234
   D92       -0.03736   0.00015   0.00000   0.01809   0.01793  -0.01943
   D93        3.09965  -0.00000   0.00000   0.01777   0.01773   3.11739
   D94        3.11633   0.00034   0.00000   0.02601   0.02589  -3.14096
   D95       -0.02984   0.00019   0.00000   0.02568   0.02569  -0.00415
   D96       -3.13320   0.00038   0.00000  -0.03961  -0.03958   3.11041
   D97        0.01442   0.00026   0.00000  -0.01473  -0.01475  -0.00032
   D98        0.00952  -0.00006   0.00000  -0.03504  -0.03495  -0.02543
   D99       -3.12604  -0.00018   0.00000  -0.01016  -0.01012  -3.13616
   D100      -2.41237  -0.00038   0.00000   0.00930   0.00932  -2.40305
   D101       0.80859  -0.00019   0.00000   0.00056   0.00056   0.80915
   D102      -0.79908   0.00008   0.00000  -0.00766  -0.00761  -0.80669
   D103       2.42041   0.00043   0.00000  -0.00820  -0.00823   2.41218
   D104       2.44629   0.00033   0.00000  -0.00707  -0.00713   2.43916
   D105      -0.74609   0.00019   0.00000  -0.00585  -0.00586  -0.75195
   D106       0.75629  -0.00026   0.00000  -0.00210  -0.00202   0.75427
   D107      -2.44199  -0.00043   0.00000   0.00118   0.00128  -2.44070
   D108       0.96305   0.00045   0.00000   0.12154   0.12151   1.08456
   D109      -2.19290   0.00058   0.00000   0.13505   0.13497  -2.05793
   D110      -2.12282   0.00032   0.00000   0.08432   0.08435  -2.03847
   D111       1.00442   0.00045   0.00000   0.09782   0.09781   1.10223
   D112       3.08762   0.00004   0.00000   0.01351   0.01359   3.10121
   D113      -0.02149   0.00004   0.00000   0.00244   0.00251  -0.01897
   D114      -0.04017  -0.00008   0.00000   0.00068   0.00066  -0.03951
   D115       3.13390  -0.00008   0.00000  -0.01039  -0.01041   3.12349
   D116       0.14078   0.00009   0.00000  -0.02264  -0.02252   0.11825
   D117      -3.08073  -0.00010   0.00000  -0.01367  -0.01355  -3.09428
   D118      -3.01518   0.00023   0.00000  -0.00908  -0.00906  -3.02424
   D119       0.04650   0.00003   0.00000  -0.00010  -0.00008   0.04641
   D120      -0.00405   0.00006   0.00000   0.00030   0.00030  -0.00376
   D121      -3.12303   0.00000   0.00000  -0.00360  -0.00361  -3.12664
   D122       3.10478   0.00005   0.00000   0.01138   0.01142   3.11620
   D123      -0.01420   0.00000   0.00000   0.00748   0.00751  -0.00669
   D124       0.04209   0.00003   0.00000  -0.00185  -0.00184   0.04024
   D125      -3.11088  -0.00009   0.00000  -0.00259  -0.00258  -3.11345
   D126      -3.12210   0.00009   0.00000   0.00206   0.00207  -3.12003
   D127       0.00812  -0.00004   0.00000   0.00131   0.00133   0.00946
   D128       3.05577  -0.00023   0.00000   0.00359   0.00364   3.05941
   D129      -0.03536  -0.00009   0.00000   0.00239   0.00239  -0.03297
   D130      -0.07455  -0.00011   0.00000   0.00433   0.00437  -0.07018
   D131       3.11750   0.00003   0.00000   0.00313   0.00312   3.12062
   D132      -0.03629  -0.00001   0.00000   0.00575   0.00575  -0.03054
   D133      -3.09918   0.00019   0.00000  -0.00273  -0.00279  -3.10196
   D134       3.05359  -0.00014   0.00000   0.00715   0.00718   3.06077
   D135      -0.00930   0.00006   0.00000  -0.00134  -0.00135  -0.01066
   D136       0.01705   0.00011   0.00000   0.00949   0.00939   0.02644
   D137      -3.06707   0.00027   0.00000   0.00626   0.00614  -3.06094
   D138       3.08108  -0.00025   0.00000   0.01009   0.01009   3.09117
   D139      -0.00304  -0.00009   0.00000   0.00687   0.00683   0.00380
   D140       3.02944  -0.00041   0.00000  -0.00321  -0.00303   3.02640
   D141      -0.10706  -0.00022   0.00000  -0.01194  -0.01183  -0.11889
   D142      -0.03383  -0.00006   0.00000  -0.00375  -0.00367  -0.03750
   D143       3.11285   0.00013   0.00000  -0.01249  -0.01246   3.10039
   D144      -3.04727   0.00031   0.00000  -0.00736  -0.00742  -3.05469
   D145       0.08081   0.00016   0.00000  -0.00440  -0.00442   0.07639
   D146       0.03798   0.00013   0.00000  -0.00409  -0.00412   0.03386
   D147      -3.11713  -0.00001   0.00000  -0.00113  -0.00112  -3.11826
   D148      -0.03562  -0.00003   0.00000  -0.00173  -0.00169  -0.03731
   D149       3.12235  -0.00011   0.00000   0.00005   0.00008   3.12243
   D150       3.11961   0.00012   0.00000  -0.00472  -0.00471   3.11489
   D151      -0.00561   0.00004   0.00000  -0.00293  -0.00295  -0.00855
   D152      -0.00189  -0.00012   0.00000   0.00483   0.00484   0.00295
   D153      -3.11855  -0.00006   0.00000   0.00462   0.00457  -3.11397
   D154       3.12330  -0.00004   0.00000   0.00304   0.00307   3.12638
   D155       0.00664   0.00002   0.00000   0.00284   0.00281   0.00945
   D156       0.03648   0.00016   0.00000  -0.00205  -0.00212   0.03436
   D157      -3.11012  -0.00003   0.00000   0.00660   0.00648  -3.10363
   D158      -3.12978   0.00010   0.00000  -0.00186  -0.00187  -3.13165
   D159       0.00681  -0.00009   0.00000   0.00679   0.00673   0.01354
   D160       2.04346  -0.00083   0.00000   0.06435   0.06461   2.10807
   D161      -1.10428  -0.00070   0.00000   0.03900   0.03925  -1.06503
   D162      -1.09300  -0.00064   0.00000   0.05551   0.05576  -1.03724
   D163       2.04245  -0.00051   0.00000   0.03016   0.03040   2.07285
   D164      -0.07904   0.00017   0.00000   0.03059   0.03047  -0.04857
   D165       3.05042   0.00000   0.00000   0.02530   0.02522   3.07564
   D166       3.06835   0.00006   0.00000   0.05456   0.05451   3.12286
   D167      -0.08537  -0.00011   0.00000   0.04926   0.04926  -0.03612
   D168       0.01426   0.00003   0.00000  -0.00501  -0.00492   0.00934
   D169      -3.13583  -0.00003   0.00000  -0.00573  -0.00568  -3.14152
   D170      -3.12977   0.00001   0.00000   0.00239   0.00245  -3.12732
   D171       0.00332  -0.00004   0.00000   0.00167   0.00169   0.00500
         Item               Value     Threshold  Converged?
 Maximum Force            0.002439     0.000450     NO 
 RMS     Force            0.000406     0.000300     NO 
 Maximum Displacement     0.541533     0.001800     NO 
 RMS     Displacement     0.102363     0.001200     NO 
 Predicted change in Energy= 1.661257D-05
 GradGradGradGradGradGradGradGradGradGradGradGradGradGradGradGradGradGrad

 Stoichiometry    C32H19BrMnN3O3S2
 Framework group  C1[X(C32H19BrMnN3O3S2)]
 Deg. of freedom   177
 Full point group                 C1      NOp   1
 Largest Abelian subgroup         C1      NOp   1
 Largest concise Abelian subgroup C1      NOp   1
                         Standard orientation:                         
 ---------------------------------------------------------------------
 Center     Atomic      Atomic             Coordinates (Angstroms)
 Number     Number       Type             X           Y           Z
 ---------------------------------------------------------------------
      1         25           0        2.323501   -1.049816   -0.865913
      2          6           0        3.478278   -2.445689   -0.492377
      3          8           0        4.148225   -3.347902   -0.303587
      4          6           0        3.477422   -0.408144   -2.165399
      5          8           0        4.104258   -0.040354   -3.043207
      6          6           0        1.514133   -2.054771   -2.104408
      7          7           0        1.128673    0.667374   -1.207341
      8          6           0        0.946260    3.055272   -1.175813
      9          6           0       -0.426491    2.977814   -1.394234
     10          6           0       -0.173626    0.607158   -1.497509
     11          1           0        1.446354    4.016331   -1.062201
     12          1           0       -1.037470    3.881728   -1.438617
     13          7           0        2.577555    0.752608    1.686837
     14          6           0        1.889933    1.627860    2.002861
     15          6           0        0.932542    2.664880    2.255158
     16          6           0       -0.379381    2.289002    2.579847
     17          6           0       -1.371146    3.260422    2.668475
     18          6           0        1.249785    4.010618    2.020580
     19          1           0       -0.617809    1.235273    2.732523
     20          1           0        2.269136    4.297257    1.747546
     21          7           0        1.053633   -1.746239    0.698276
     22          6           0        0.758021   -2.384823    2.989246
     23          6           0       -0.616179   -2.511811    2.802040
     24          1           0        1.215032   -2.570442    3.961981
     25          6           0        1.683218    1.884957   -1.072089
     26          1           0        2.755124    1.918069   -0.868641
     27          6           0        1.554948   -1.991345    1.922305
     28          1           0        2.630197   -1.862919    2.049100
     29          1           0       -2.394517    2.966514    2.908775
     30          8           0        0.965389   -2.701162   -2.875905
     31         16           0       -2.679356    0.287508    0.637937
     32         16           0       -5.735302   -0.199750   -0.131007
     33          6           0       -1.008882    1.722155   -1.563848
     34          6           0       -2.461225    1.534964   -1.831332
     35          6           0       -3.016256    2.070065   -2.998961
     36          6           0       -4.359890    1.874661   -3.306847
     37          6           0       -5.171347    1.135235   -2.452018
     38          6           0       -4.645858    0.630364   -1.260134
     39          6           0       -3.295885    0.831738   -0.941179
     40          1           0       -2.374160    2.630227   -3.681770
     41          1           0       -4.774295    2.286764   -4.228428
     42          1           0       -6.219309    0.955648   -2.699733
     43          6           0       -3.369533   -1.350713    0.736731
     44          6           0       -4.718961   -1.550043    0.413114
     45          6           0       -5.304213   -2.807699    0.576170
     46          6           0       -4.554319   -3.856012    1.100010
     47          6           0       -3.212732   -3.665041    1.419222
     48          6           0       -2.596742   -2.424001    1.224715
     49          1           0       -6.349883   -2.957448    0.300504
     50          1           0       -5.015447   -4.834404    1.244683
     51          1           0       -2.619441   -4.496095    1.805949
     52          6           0       -1.147003   -2.276154    1.533677
     53          1           0       -1.269017   -2.796029    3.630071
     54          6           0       -0.257815   -1.923220    0.519084
     55          1           0       -0.644955   -1.796712   -0.489424
     56          1           0       -0.597116   -0.375651   -1.696502
     57          6           0       -1.056493    4.600374    2.437171
     58          6           0        0.250873    4.973535    2.119882
     59          1           0        0.492862    6.022367    1.939795
     60          1           0       -1.837903    5.360375    2.500175
     61         35           0        5.910829    0.038569    0.115242
 ---------------------------------------------------------------------
 Rotational constants (GHZ):           0.1004497           0.0507253           0.0452757
 Basis read from rwf:  (5D, 7F)
 There are   800 symmetry adapted cartesian basis functions of A   symmetry.
 There are   749 symmetry adapted basis functions of A   symmetry.
   749 basis functions,  1349 primitive gaussians,   800 cartesian basis functions
   174 alpha electrons      174 beta electrons
       nuclear repulsion energy      6628.3208237813 Hartrees.
 NAtoms=   61 NActive=   61 NUniq=   61 SFac= 1.00D+00 NAtFMM=   60 NAOKFM=T Big=T
 Integral buffers will be    131072 words long.
 Raffenetti 2 integral format.
 Two-electron integral symmetry is turned on.
 Nuclear repulsion after empirical dispersion term =     6628.2532065574 Hartrees.
 ------------------------------------------------------------------------------
 Polarizable Continuum Model (PCM)
 =================================
 Model                : PCM.
 Atomic radii         : UFF (Universal Force Field).
 Polarization charges : Total charges.
 Charge compensation  : None.
 Solution method      : On-the-fly selection.
 Cavity type          : Scaled VdW (van der Waals Surface) (Alpha=1.100).
 Cavity algorithm     : GePol (No added spheres)
                        Default sphere list used, NSphG=   61.
                        Lebedev-Laikov grids with approx.  5.0 points / Ang**2.
                        Smoothing algorithm: York/Karplus (Gamma=1.0000).
                        Polarization charges: spherical gaussians, with
                                              point-specific exponents (IZeta= 3).
                        Self-potential: point-specific (ISelfS= 7).
                        Self-field    : sphere-specific E.n sum rule (ISelfD= 2).
 1st derivatives      : Analytical E(r).r(x)/FMM algorithm (CHGder, D1EAlg=3).
                        Cavity 1st derivative terms included.
 Solvent              : TetraHydroFuran, Eps=   7.425700 Eps(inf)=   1.974025
 ------------------------------------------------------------------------------
 One-electron integrals computed using PRISM.
 PrsmSu:  requested number of processors reduced to:  11 ShMem   1 Linda.
 NBasis=   749 RedAO= T EigKep=  2.26D-04  NBF=   749
 NBsUse=   749 1.00D-06 EigRej= -1.00D+00 NBFU=   749
 Initial guess from the checkpoint file:  "checkpoint.chk"
 B after Tr=    -0.000000    0.000000   -0.000000
         Rot=    0.999995    0.002984   -0.000404   -0.000259 Ang=   0.35 deg.
 ExpMin= 3.93D-02 ExpMax= 2.77D+05 ExpMxC= 1.70D+04 IAcc=3 IRadAn=         5 AccDes= 0.00D+00
 Harris functional with IExCor= 4639 and IRadAn=       5 diagonalized for initial guess.
 HarFok:  IExCor= 4639 AccDes= 0.00D+00 IRadAn=         5 IDoV= 1 UseB2=F ITyADJ=14
 ICtDFT=  3500011 ScaDFX=  1.000000  1.000000  1.000000  1.000000
 FoFCou: FMM=F IPFlag=           0 FMFlag=      100000 FMFlg1=        2001
         NFxFlg=           0 DoJE=T BraDBF=F KetDBF=T FulRan=T
         wScrn=  0.000000 ICntrl=       500 IOpCl=  0 I1Cent=   200000004 NGrid=           0
         NMat0=    1 NMatS0=      1 NMatT0=    0 NMatD0=    1 NMtDS0=    0 NMtDT0=    0
 Petite list used in FoFCou.
 Requested convergence on RMS density matrix=1.00D-08 within 128 cycles.
 Requested convergence on MAX density matrix=1.00D-06.
 Requested convergence on             energy=1.00D-06.
 No special actions if energy rises.
 CoulSu:  requested number of processors reduced to:   9 ShMem   1 Linda.
 Inv3:  Mode=1 IEnd=    70917132.
 Iteration    1 A*A^-1 deviation from unit magnitude is 4.22D-15 for   3517.
 Iteration    1 A*A^-1 deviation from orthogonality  is 1.89D-15 for   3175    686.
 Iteration    1 A^-1*A deviation from unit magnitude is 4.00D-15 for   3517.
 Iteration    1 A^-1*A deviation from orthogonality  is 1.07D-11 for   4247   3916.
 CoulSu:  requested number of processors reduced to:   9 ShMem   1 Linda.
 CoulSu:  requested number of processors reduced to:   9 ShMem   1 Linda.
