 Entering Gaussian System, Link 0=g16
 Initial command:
 /home1/apps/gaussian/16rA.03/g16/l1.exe "/tmp/Gau-260378.inp" -scrdir="/tmp/"
 Entering Link 1 = /home1/apps/gaussian/16rA.03/g16/l1.exe PID=    260380.
  
 Copyright (c) 1988,1990,1992,1993,1995,1998,2003,2009,2016,
            Gaussian, Inc.  All Rights Reserved.
  
 This is part of the Gaussian(R) 16 program.  It is based on
 the Gaussian(R) 09 system (copyright 2009, Gaussian, Inc.),
 the Gaussian(R) 03 system (copyright 2003, Gaussian, Inc.),
 the Gaussian(R) 98 system (copyright 1998, Gaussian, Inc.),
 the Gaussian(R) 94 system (copyright 1995, Gaussian, Inc.),
 the Gaussian 92(TM) system (copyright 1992, Gaussian, Inc.),
 the Gaussian 90(TM) system (copyright 1990, Gaussian, Inc.),
 the Gaussian 88(TM) system (copyright 1988, Gaussian, Inc.),
 the Gaussian 86(TM) system (copyright 1986, Carnegie Mellon
 University), and the Gaussian 82(TM) system (copyright 1983,
 Carnegie Mellon University). Gaussian is a federally registered
 trademark of Gaussian, Inc.
  
 This software contains proprietary and confidential information,
 including trade secrets, belonging to Gaussian, Inc.
  
 This software is provided under written license and may be
 used, copied, transmitted, or stored only in accord with that
 written license.
  
 The following legend is applicable only to US Government
 contracts under FAR:
  
                    RESTRICTED RIGHTS LEGEND
  
 Use, reproduction and disclosure by the US Government is
 subject to restrictions as set forth in subparagraphs (a)
 and (c) of the Commercial Computer Software - Restricted
 Rights clause in FAR 52.227-19.
  
 Gaussian, Inc.
 340 Quinnipiac St., Bldg. 40, Wallingford CT 06492
  
  
 ---------------------------------------------------------------
 Warning -- This program may not be used in any manner that
 competes with the business of Gaussian, Inc. or will provide
 assistance to any competitor of Gaussian, Inc.  The licensee
 of this program is prohibited from giving any competitor of
 Gaussian, Inc. access to this program.  By using this program,
 the user acknowledges that Gaussian, Inc. is engaged in the
 business of creating and licensing software in the field of
 computational chemistry and represents and warrants to the
 licensee that it is not a competitor of Gaussian, Inc. and that
 it will not use this program in any manner prohibited above.
 ---------------------------------------------------------------
  

 Cite this work as:
 Gaussian 16, Revision A.03,
 M. J. Frisch, G. W. Trucks, H. B. Schlegel, G. E. Scuseria, 
 M. A. Robb, J. R. Cheeseman, G. Scalmani, V. Barone, 
 G. A. Petersson, H. Nakatsuji, X. Li, M. Caricato, A. V. Marenich, 
 J. Bloino, B. G. Janesko, R. Gomperts, B. Mennucci, H. P. Hratchian, 
 J. V. Ortiz, A. F. Izmaylov, J. L. Sonnenberg, D. Williams-Young, 
 F. Ding, F. Lipparini, F. Egidi, J. Goings, B. Peng, A. Petrone, 
 T. Henderson, D. Ranasinghe, V. G. Zakrzewski, J. Gao, N. Rega, 
 G. Zheng, W. Liang, M. Hada, M. Ehara, K. Toyota, R. Fukuda, 
 J. Hasegawa, M. Ishida, T. Nakajima, Y. Honda, O. Kitao, H. Nakai, 
 T. Vreven, K. Throssell, J. A. Montgomery, Jr., J. E. Peralta, 
 F. Ogliaro, M. J. Bearpark, J. J. Heyd, E. N. Brothers, K. N. Kudin, 
 V. N. Staroverov, T. A. Keith, R. Kobayashi, J. Normand, 
 K. Raghavachari, A. P. Rendell, J. C. Burant, S. S. Iyengar, 
 J. Tomasi, M. Cossi, J. M. Millam, M. Klene, C. Adamo, R. Cammi, 
 J. W. Ochterski, R. L. Martin, K. Morokuma, O. Farkas, 
 J. B. Foresman, and D. J. Fox, Gaussian, Inc., Wallingford CT, 2016.
 
 ******************************************
 Gaussian 16:  ES64L-G16RevA.03 25-Dec-2016
                11-Dec-2022 
 ******************************************
 %Chk=checkpoint.chk
 %NProcShared=12
 Will use up to   12 processors via shared memory.
 ---------------------------------------------------------------
 # wB97XD Gen Opt=(QST3, Restart) SCRF=(Solvent=TetraHydroFuran)
 ---------------------------------------------------------------
 1/5=1,18=20,26=3,27=203,35=1/3(2);
 2/9=110/2;
 99//99;
 2/9=110/2;
 3/5=7,6=1,11=2,25=1,30=1,70=2205,71=1,72=20,74=-58,82=7/1,2,3;
 4/5=5,16=3,69=1/1;
 5/5=2,38=5,53=20/2;
 7//1,2,3,16;
 1/5=1,18=20,26=3,27=203/3(-5);
 2/9=110/2;
 6/7=2,8=2,9=2,10=2,19=2,28=1/1;
 99/9=1/99;

 GradGradGradGradGradGradGradGradGradGradGradGradGradGradGradGradGradGrad
 Berny optimization.
 Restoring state from the checkpoint file "checkpoint.chk".
 ONIOM results not found on unit 2.
 Title:  Mn Transition State Reactant
 Route:  # wB97XD Gen Opt=(QST3) SCRF=(Solvent=TetraHydroFuran)
 FormGI is forming the generalized inverse of G from B-inverse, IUseBI=4.
 Internal  Forces:  Max     0.002383146 RMS     0.000297465
 Search for a saddle point.
 Step number  90 out of a maximum of  366
 All quantities printed in internal units (Hartrees-Bohrs-Radians)
 Update second derivatives using D2CorX and points   83   84   85   86   87
                                                     88   89   90
 ITU=  0  0  0  0  0  0  0  0  0  0  0  0  0  0  0  0  0  0  0  0
 ITU=  0  0  0  0  0  0  0  0  0  0  0  0  0  0  0  0  0  0  0  0
 ITU=  0  0  0  0  0  0  0  0  0  0  0  0  0  0  0  0  0  0  0  0
 ITU=  0  0  0  0  0  0  0  0  0  0  0  0  0  0  0  0  0  0  0  0
 ITU=  0  0  0  0  0  0  0  0  0  0
     Eigenvalues ---   -0.01400   0.00222   0.00374   0.00594   0.00767
     Eigenvalues ---    0.01106   0.01243   0.01333   0.01458   0.01536
     Eigenvalues ---    0.01573   0.01687   0.01722   0.01777   0.01812
     Eigenvalues ---    0.01866   0.01882   0.01906   0.01944   0.01962
     Eigenvalues ---    0.02011   0.02045   0.02134   0.02141   0.02148
     Eigenvalues ---    0.02154   0.02168   0.02170   0.02171   0.02175
     Eigenvalues ---    0.02176   0.02178   0.02179   0.02182   0.02193
     Eigenvalues ---    0.02200   0.02204   0.02215   0.02225   0.02270
     Eigenvalues ---    0.02300   0.02324   0.02356   0.02422   0.02539
     Eigenvalues ---    0.02837   0.03039   0.03330   0.03403   0.03479
     Eigenvalues ---    0.03822   0.04255   0.04506   0.04981   0.05157
     Eigenvalues ---    0.05502   0.05870   0.06433   0.06887   0.07475
     Eigenvalues ---    0.07552   0.07996   0.08570   0.08990   0.09242
     Eigenvalues ---    0.09682   0.10202   0.10353   0.10937   0.12124
     Eigenvalues ---    0.13268   0.13778   0.14607   0.15991   0.15995
     Eigenvalues ---    0.15997   0.15998   0.15998   0.15999   0.15999
     Eigenvalues ---    0.16000   0.16000   0.16001   0.16001   0.16004
     Eigenvalues ---    0.16008   0.16010   0.16016   0.16036   0.16084
     Eigenvalues ---    0.16761   0.17286   0.18071   0.19937   0.21333
     Eigenvalues ---    0.21426   0.21540   0.21996   0.22002   0.22098
     Eigenvalues ---    0.22109   0.22118   0.22250   0.22415   0.22860
     Eigenvalues ---    0.23227   0.23381   0.23475   0.23660   0.23725
     Eigenvalues ---    0.23762   0.23942   0.24776   0.24894   0.25206
     Eigenvalues ---    0.25300   0.26645   0.26784   0.27657   0.28099
     Eigenvalues ---    0.32550   0.32942   0.33477   0.34012   0.34449
     Eigenvalues ---    0.34450   0.34457   0.34463   0.34468   0.34482
     Eigenvalues ---    0.34496   0.34498   0.34533   0.34538   0.34539
     Eigenvalues ---    0.34540   0.34573   0.34583   0.34658   0.34850
     Eigenvalues ---    0.34919   0.35267   0.38035   0.38386   0.39872
     Eigenvalues ---    0.40168   0.40706   0.41488   0.41677   0.41792
     Eigenvalues ---    0.42108   0.43254   0.43747   0.44236   0.44918
     Eigenvalues ---    0.45110   0.45896   0.45939   0.45949   0.45961
     Eigenvalues ---    0.46152   0.46296   0.46398   0.46515   0.46887
     Eigenvalues ---    0.46894   0.46997   0.47117   0.47254   0.53979
     Eigenvalues ---    0.54649   0.56012   0.57044   1.25082   1.31836
     Eigenvalues ---    1.35610   1.357061000.000001000.000001000.00000
     Eigenvalues --- 1000.000001000.000001000.000001000.000001000.00000
     Eigenvalues --- 1000.000001000.000001000.000001000.000001000.00000
     Eigenvalues --- 1000.000001000.000001000.000001000.000001000.00000
     Eigenvalues --- 1000.000001000.000001000.000001000.000001000.00000
     Eigenvalues --- 1000.000001000.000001000.000001000.000001000.00000
     Eigenvalues --- 1000.000001000.000001000.000001000.000001000.00000
     Eigenvalues --- 1000.000001000.000001000.000001000.000001000.00000
     Eigenvalues --- 1000.000001000.000001000.000001000.000001000.00000
     Eigenvalues --- 1000.000001000.000001000.000001000.000001000.00000
     Eigenvalues --- 1000.000001000.000001000.000001000.000001000.00000
     Eigenvalues --- 1000.000001000.000001000.000001000.000001000.00000
     Eigenvalues --- 1000.000001000.000001000.000001000.000001000.00000
     Eigenvalues --- 1000.000001000.000001000.000001000.000001000.00000
     Eigenvalues --- 1000.000001000.000001000.000001000.000001000.00000
     Eigenvalues --- 1000.000001000.000001000.000001000.000001000.00000
     Eigenvalues --- 1000.000001000.000001000.000001000.000001000.00000
     Eigenvalues --- 1000.000001000.000001000.000001000.000001000.00000
     Eigenvalues --- 1000.000001000.000001000.000001000.000001000.00000
     Eigenvalues --- 1000.000001000.000001000.000001000.000001000.00000
     Eigenvalues --- 1000.000001000.000001000.000001000.000001000.00000
     Eigenvalues --- 1000.000001000.000001000.000001000.000001000.00000
     Eigenvalues --- 1000.000001000.000001000.000001000.000001000.00000
     Eigenvalues --- 1000.000001000.000001000.000001000.000001000.00000
     Eigenvalues --- 1000.000001000.000001000.000001000.000001000.00000
     Eigenvalues --- 1000.000001000.000001000.000001000.000001000.00000
     Eigenvalues --- 1000.000001000.000001000.000001000.000001000.00000
     Eigenvalues --- 1000.000001000.000001000.000001000.000001000.00000
     Eigenvalues --- 1000.000001000.000001000.000001000.000001000.00000
     Eigenvalues --- 1000.000001000.000001000.000001000.000001000.00000
     Eigenvalues --- 1000.000001000.000001000.000001000.000001000.00000
     Eigenvalues --- 1000.000001000.000001000.000001000.000001000.00000
     Eigenvalues --- 1000.000001000.000001000.000001000.000001000.00000
     Eigenvalues --- 1000.000001000.000001000.000001000.000001000.00000
     Eigenvalues --- 1000.000001000.000001000.000001000.000001000.00000
     Eigenvalues --- 1000.000001000.000001000.000001000.000001000.00000
     Eigenvalues --- 1000.000001000.000001000.000001000.000001000.00000
     Eigenvalues --- 1000.000001000.000001000.000001000.000001000.00000
     Eigenvalues --- 1000.000001000.000001000.000001000.000001000.00000
     Eigenvalues --- 1000.000001000.000001000.00000
 Eigenvectors required to have negative eigenvalues:
                          R5        R31       R7        R30       D17
   1                    0.59091   0.43887  -0.35365   0.24127  -0.13304
                          D13       D18       D14       A16       A23
   1                   -0.13253  -0.12948  -0.12897   0.11119  -0.10642
 QST in optimization variable space.
                        Tangent   TS vect  // Eig F  Eigenval
   1         R1        -0.00224   0.00133   0.00028  -0.01400
   2         R2        -0.00127   0.00552  -0.00082   0.00222
   3         R3        -0.00435  -0.00640  -0.00019   0.00374
   4         R4        -0.00984  -0.01405  -0.00028   0.00594
   5         R5         0.35967   0.59091  -0.00035   0.00767
   6         R6        -0.02383  -0.01632   0.00059   0.01106
   7         R7        -0.28925  -0.35365  -0.00028   0.01243
   8         R8         0.00049   0.00003  -0.00023   0.01333
   9         R9         0.00039   0.00119  -0.00062   0.01458
  10         R10        0.00057   0.00070  -0.00001   0.01536
  11         R11       -0.00038   0.00077  -0.00005   0.01573
  12         R12       -0.00444  -0.00086   0.00000   0.01687
  13         R13       -0.00040  -0.00048   0.00008   0.01722
  14         R14       -0.00045  -0.00073   0.00009   0.01777
  15         R15        0.00320   0.00043  -0.00000   0.01812
  16         R16       -0.00005   0.00000  -0.00001   0.01866
  17         R17       -0.00359   0.00093   0.00021   0.01882
  18         R18       -0.00590   0.00140   0.00005   0.01906
  19         R19        0.00002   0.00079  -0.00009   0.01944
  20         R20        0.00941  -0.00140  -0.00009   0.01962
  21         R21        0.01191  -0.00312   0.00018   0.02011
  22         R22       -0.01201  -0.00415  -0.00013   0.02045
  23         R23       -0.03243   0.00042   0.00022   0.02134
  24         R24       -0.00148  -0.00367   0.00003   0.02141
  25         R25       -0.00017  -0.00451  -0.00009   0.02148
  26         R26       -0.00004   0.00053   0.00027   0.02154
  27         R27        0.00959  -0.00212   0.00001   0.02168
  28         R28       -0.01033   0.00434   0.00002   0.02170
  29         R29        0.00172   0.00301  -0.00009   0.02171
  30         R30       -0.40660   0.24127   0.00011   0.02175
  31         R31        0.43068   0.43887  -0.00007   0.02176
  32         R32       -0.03772  -0.00130   0.00001   0.02178
  33         R33       -0.00347  -0.00011   0.00008   0.02179
  34         R34        0.00314  -0.00097   0.00007   0.02182
  35         R35       -0.02829  -0.00164   0.00031   0.02193
  36         R36       -0.01866  -0.00093   0.00003   0.02200
  37         R37        0.00985  -0.00152  -0.00013   0.02204
  38         R38       -0.00005   0.00005  -0.00012   0.02215
  39         R39        0.00022   0.00110  -0.00004   0.02225
  40         R40        0.00004  -0.00063  -0.00029   0.02270
  41         R41        0.00551  -0.00275   0.00017   0.02300
  42         R42        0.00454  -0.00170  -0.00020   0.02324
  43         R43        0.00207   0.00021   0.00005   0.02356
  44         R44        0.00030  -0.00047  -0.00004   0.02422
  45         R45        0.00052   0.00239  -0.00032   0.02539
  46         R46       -0.00049   0.00025   0.00054   0.02837
  47         R47        0.00683   0.00178  -0.00027   0.03039
  48         R48        0.00067   0.00037   0.00070   0.03330
  49         R49       -0.00005  -0.00038  -0.00024   0.03403
  50         R50        0.00107   0.00024   0.00031   0.03479
  51         R51       -0.00005  -0.00008  -0.00028   0.03822
  52         R52        0.00040  -0.00111   0.00024   0.04255
  53         R53       -0.00005  -0.00008   0.00062   0.04506
  54         R54       -0.00049  -0.00018   0.00008   0.04981
  55         R55       -0.00002  -0.00185   0.00002   0.05157
  56         R56        0.00537  -0.00051   0.00053   0.05502
  57         R57       -0.00002   0.00033   0.00096   0.05870
  58         R58       -0.00006   0.00071  -0.00008   0.06433
  59         R59       -0.00005   0.00004   0.00014   0.06887
  60         R60       -0.00011   0.00057  -0.00121   0.07475
  61         R61       -0.00005   0.00003  -0.00032   0.07552
  62         R62        0.00007  -0.00125  -0.00055   0.07996
  63         R63       -0.00003   0.00001   0.00044   0.08570
  64         R64        0.00010  -0.00015  -0.00004   0.08990
  65         R65       -0.00141   0.00121   0.00012   0.09242
  66         R66       -0.00017   0.00135  -0.00014   0.09682
  67         R67        0.01151  -0.00106  -0.00076   0.10202
  68         R68       -0.00009   0.00026  -0.00075   0.10353
  69         R69       -0.00006  -0.00007   0.00080   0.10937
  70         A1        -0.02159   0.01361  -0.00292   0.12124
  71         A2         0.01157  -0.00428   0.00117   0.13268
  72         A3        -0.02485   0.03375  -0.00145   0.13778
  73         A4         0.03705  -0.00297   0.00005   0.14607
  74         A5         0.04942   0.08991  -0.00002   0.15991
  75         A6        -0.00551  -0.01178   0.00011   0.15995
  76         A7         0.01875   0.02474   0.00003   0.15997
  77         A8         0.00934   0.00630  -0.00004   0.15998
  78         A9        -0.00326   0.02014   0.00007   0.15998
  79         A10        0.09207   0.09507   0.00002   0.15999
  80         A11       -0.02709   0.00184  -0.00002   0.15999
  81         A12       -0.03844  -0.01193  -0.00002   0.16000
  82         A13        0.02492   0.06929  -0.00005   0.16000
  83         A14        0.02552   0.00276  -0.00002   0.16001
  84         A15        0.06098   0.08564   0.00005   0.16001
  85         A16        0.10126   0.11119   0.00012   0.16004
  86         A17        0.03002   0.00551  -0.00011   0.16008
  87         A18        0.03032   0.02046  -0.00017   0.16010
  88         A19        0.04750   0.08086  -0.00006   0.16016
  89         A20       -0.05826  -0.08610   0.00009   0.16036
  90         A21        0.02408  -0.02413  -0.00024   0.16084
  91         A22       -0.06479  -0.00677  -0.00144   0.16761
  92         A23       -0.12478  -0.10642   0.00112   0.17286
  93         A24       -0.06975  -0.07884   0.00002   0.18071
  94         A25       -0.00656  -0.00356   0.00059   0.19937
  95         A26       -0.00653   0.00286   0.00011   0.21333
  96         A27        0.00375  -0.04100   0.00007   0.21426
  97         A28        0.00427  -0.04335   0.00043   0.21540
  98         A29        0.00226   0.00183   0.00016   0.21996
  99         A30       -0.00087  -0.02922  -0.00003   0.22002
 100         A31        0.00047   0.00810  -0.00016   0.22098
 101         A32        0.00057  -0.03051   0.00005   0.22109
 102         A33       -0.03300  -0.00136  -0.00015   0.22118
 103         A34        0.03144   0.00009   0.00011   0.22250
 104         A35        0.00137   0.00073   0.00014   0.22415
 105         A36       -0.00292  -0.00133  -0.00015   0.22860
 106         A37        0.00531   0.00076   0.00005   0.23227
 107         A38       -0.00247   0.00052  -0.00005   0.23381
 108         A39        0.00064   0.00041   0.00020   0.23475
 109         A40       -0.00136  -0.00014  -0.00002   0.23660
 110         A41        0.00066  -0.00030   0.00026   0.23725
 111         A42        0.00497  -0.00019   0.00000   0.23762
 112         A43       -0.00247   0.00102  -0.00026   0.23942
 113         A44       -0.00247  -0.00080   0.00012   0.24776
 114         A45       -0.00752  -0.06055  -0.00031   0.24894
 115         A46       -0.02916  -0.04263  -0.00006   0.25206
 116         A47        0.05415   0.00122  -0.00017   0.25300
 117         A48       -0.01424   0.06364   0.00022   0.26645
 118         A49       -0.02494   0.06393  -0.00018   0.26784
 119         A50       -0.08593   0.01558   0.00026   0.27657
 120         A51       -0.01937  -0.01868  -0.00001   0.28099
 121         A52       -0.03284   0.01950   0.00109   0.32550
 122         A53        0.05378  -0.00028   0.00045   0.32942
 123         A54       -0.02674   0.00570  -0.00044   0.33477
 124         A55        0.01340  -0.00554   0.00015   0.34012
 125         A56        0.01325  -0.00013   0.00001   0.34449
 126         A57        0.00259   0.00021   0.00007   0.34450
 127         A58       -0.00535  -0.00217  -0.00060   0.34457
 128         A59        0.00277   0.00195   0.00004   0.34463
 129         A60        0.02744   0.04788  -0.00038   0.34468
 130         A61       -0.02894  -0.00669   0.00013   0.34482
 131         A62        0.00135  -0.04176  -0.00002   0.34496
 132         A63        0.04945   0.03290  -0.00005   0.34498
 133         A64       -0.02337  -0.04193  -0.00002   0.34533
 134         A65        0.00087   0.00784  -0.00001   0.34538
 135         A66       -0.00255  -0.00907   0.00000   0.34539
 136         A67        0.00159   0.00144  -0.00001   0.34540
 137         A68        0.06455  -0.00750   0.00007   0.34573
 138         A69        0.01327   0.00172  -0.00002   0.34583
 139         A70       -0.07784   0.00582  -0.00012   0.34658
 140         A71       -0.01785  -0.00058   0.00010   0.34850
 141         A72        0.00884  -0.00045   0.00046   0.34919
 142         A73        0.00900   0.00100  -0.00061   0.35267
 143         A74       -0.06059  -0.01553  -0.00117   0.38035
 144         A75       -0.00763  -0.00078   0.00001   0.38386
 145         A76        0.00247  -0.00014  -0.00009   0.39872
 146         A77        0.00516   0.00103   0.00081   0.40168
 147         A78        0.00348  -0.00121  -0.00009   0.40706
 148         A79       -0.00295  -0.00150   0.00043   0.41488
 149         A80       -0.00071   0.00274   0.00003   0.41677
 150         A81        0.01140  -0.00016   0.00005   0.41792
 151         A82        0.01042   0.00185   0.00007   0.42108
 152         A83       -0.00317  -0.00086  -0.00040   0.43254
 153         A84        0.00293   0.00347   0.00020   0.43747
 154         A85        0.00019  -0.00250   0.00003   0.44236
 155         A86        0.00405  -0.00038  -0.00012   0.44918
 156         A87       -0.00405   0.00359   0.00002   0.45110
 157         A88       -0.00005  -0.00321   0.00021   0.45896
 158         A89       -0.00069  -0.00002  -0.00006   0.45939
 159         A90        0.00037  -0.00050  -0.00004   0.45949
 160         A91        0.00031   0.00033   0.00007   0.45961
 161         A92        0.00096   0.00132   0.00002   0.46152
 162         A93       -0.00051  -0.00012   0.00002   0.46296
 163         A94       -0.00044  -0.00129  -0.00017   0.46398
 164         A95        0.00038  -0.00041  -0.00001   0.46515
 165         A96       -0.00027   0.00047   0.00011   0.46887
 166         A97       -0.00014  -0.00010   0.00008   0.46894
 167         A98        0.00123  -0.00086   0.00002   0.46997
 168         A99       -0.00137   0.00245  -0.00042   0.47117
 169         A100       0.00000  -0.00158   0.00015   0.47254
 170         A101       0.00523  -0.00321  -0.00006   0.53979
 171         A102      -0.00491   0.00055   0.00006   0.54649
 172         A103      -0.00068   0.00306   0.00033   0.56012
 173         A104      -0.00481   0.00361   0.00005   0.57044
 174         A105       0.00648  -0.00646  -0.00087   1.25082
 175         A106      -0.00174   0.00228   0.00005   1.31836
 176         A107      -0.00115  -0.00003   0.00054   1.35610
 177         A108      -0.00008   0.00221   0.00070   1.35706
 178         A109       0.00118  -0.00248   0.000001000.00000
 179         A110       0.00015   0.00038  -0.000001000.00000
 180         A111       0.00001   0.00032  -0.000001000.00000
 181         A112      -0.00017  -0.00074   0.000001000.00000
 182         A113       0.00023   0.00125  -0.000001000.00000
 183         A114      -0.00023  -0.00061  -0.000001000.00000
 184         A115      -0.00001  -0.00066  -0.000001000.00000
 185         A116       0.00041  -0.00240  -0.000001000.00000
 186         A117      -0.00040   0.00151  -0.000001000.00000
 187         A118      -0.00004   0.00071  -0.000001000.00000
 188         A119      -0.00027   0.00065   0.000001000.00000
 189         A120       0.00151  -0.00841   0.000001000.00000
 190         A121      -0.00120   0.00775  -0.000001000.00000
 191         A122       0.01982   0.00437   0.000001000.00000
 192         A123      -0.00315   0.00055  -0.000001000.00000
 193         A124      -0.01663  -0.00493  -0.000001000.00000
 194         A125       0.00310  -0.00132  -0.000001000.00000
 195         A126      -0.00150   0.00278   0.000001000.00000
 196         A127      -0.00160  -0.00150  -0.000001000.00000
 197         A128       0.00741  -0.00291  -0.000001000.00000
 198         A129      -0.00361   0.00086  -0.000001000.00000
 199         A130      -0.00380   0.00206  -0.000001000.00000
 200         A131      -0.00051   0.00618  -0.000001000.00000
 201         A132       0.00030  -0.00352   0.000001000.00000
 202         A133       0.00025  -0.00272   0.000001000.00000
 203         D1        -0.00007  -0.03736  -0.000001000.00000
 204         D2        -0.00325  -0.04686   0.000001000.00000
 205         D3        -0.00740  -0.04666  -0.000001000.00000
 206         D4        -0.01058  -0.05615   0.000001000.00000
 207         D5         0.11222   0.07547   0.000001000.00000
 208         D6         0.10904   0.06597  -0.000001000.00000
 209         D7        -0.04346  -0.04880  -0.000001000.00000
 210         D8        -0.04664  -0.05830  -0.000001000.00000
 211         D9         0.03467   0.03821   0.000001000.00000
 212         D10        0.03149   0.02871  -0.000001000.00000
 213         D11        0.20229   0.01259   0.000001000.00000
 214         D12        0.17644   0.01615  -0.000001000.00000
 215         D13        0.11653  -0.13253   0.000001000.00000
 216         D14        0.09068  -0.12897  -0.000001000.00000
 217         D15        0.26852   0.00281   0.000001000.00000
 218         D16        0.24266   0.00637   0.000001000.00000
 219         D17        0.06582  -0.13304   0.000001000.00000
 220         D18        0.03997  -0.12948  -0.000001000.00000
 221         D19       -0.00283   0.05694  -0.000001000.00000
 222         D20       -0.00930   0.07341   0.000001000.00000
 223         D21        0.00878   0.05273   0.000001000.00000
 224         D22        0.00231   0.06921  -0.000001000.00000
 225         D23        0.03678   0.05579   0.000001000.00000
 226         D24        0.03031   0.07227   0.000001000.00000
 227         D25       -0.06754  -0.05280  -0.000001000.00000
 228         D26       -0.07401  -0.03632  -0.000001000.00000
 229         D27       -0.04038   0.01409   0.000001000.00000
 230         D28       -0.04685   0.03057  -0.000001000.00000
 231         D29       -0.00408  -0.00147   0.000001000.00000
 232         D30        0.00135   0.00479   0.000001000.00000
 233         D31       -0.00186   0.00823   0.000001000.00000
 234         D32        0.00357   0.01449   0.000001000.00000
 235         D33       -0.00044  -0.01180  -0.000001000.00000
 236         D34       -0.00030  -0.00227   0.000001000.00000
 237         D35       -0.00491  -0.02061   0.000001000.00000
 238         D36       -0.00476  -0.01108  -0.000001000.00000
 239         D37       -0.00155  -0.00188  -0.000001000.00000
 240         D38        0.00327   0.00050  -0.000001000.00000
 241         D39       -0.00425  -0.00343  -0.000001000.00000
 242         D40        0.00057  -0.00105   0.000001000.00000
 243         D41        0.00532   0.01725   0.000001000.00000
 244         D42        0.00520   0.00731   0.000001000.00000
 245         D43        0.00265   0.01569   0.000001000.00000
 246         D44        0.00253   0.00575   0.000001000.00000
 247         D45       -0.00651  -0.01040  -0.000001000.00000
 248         D46       -0.01064  -0.00027   0.000001000.00000
 249         D47       -0.00171  -0.00804   0.000001000.00000
 250         D48       -0.00584   0.00209   0.000001000.00000
 251         D49        0.00745   0.00710   0.000001000.00000
 252         D50        0.01143  -0.00277   0.000001000.00000
 253         D51        0.00194   0.00076  -0.000001000.00000
 254         D52        0.00593  -0.00912  -0.000001000.00000
 255         D53       -0.00330   0.00235  -0.000001000.00000
 256         D54       -0.01357   0.00553  -0.000001000.00000
 257         D55        0.03142   0.01503   0.000001000.00000
 258         D56        0.02114   0.01822   0.000001000.00000
 259         D57        0.00709   0.04059   0.000001000.00000
 260         D58       -0.00338   0.00071   0.000001000.00000
 261         D59       -0.02834   0.02892   0.000001000.00000
 262         D60       -0.03881  -0.01096   0.000001000.00000
 263         D61       -0.00882  -0.00583  -0.000001000.00000
 264         D62       -0.00670  -0.00731  -0.000001000.00000
 265         D63        0.00154  -0.00901  -0.000001000.00000
 266         D64        0.00366  -0.01049   0.000001000.00000
 267         D65       -0.00974  -0.00433   0.000001000.00000
 268         D66       -0.00236   0.00550   0.000001000.00000
 269         D67       -0.00760  -0.00582  -0.000001000.00000
 270         D68       -0.00022   0.00402  -0.000001000.00000
 271         D69        0.07359  -0.06131  -0.000001000.00000
 272         D70        0.06156   0.04338   0.000001000.00000
 273         D71        0.08448  -0.02127  -0.000001000.00000
 274         D72        0.07245   0.08341   0.000001000.00000
 275         D73        0.02159  -0.00074  -0.000001000.00000
 276         D74        0.01260   0.00987   0.000001000.00000
 277         D75        0.01127  -0.04011   0.000001000.00000
 278         D76        0.00228  -0.02949   0.000001000.00000
 279         D77       -0.07537  -0.05506  -0.000001000.00000
 280         D78       -0.01254   0.01431   0.000001000.00000
 281         D79        0.00317   0.01246  -0.000001000.00000
 282         D80       -0.00631  -0.00139  -0.000001000.00000
 283         D81        0.00941  -0.00324  -0.000001000.00000
 284         D82        0.00441  -0.02206  -0.000001000.00000
 285         D83        0.00414  -0.01763  -0.000001000.00000
 286         D84       -0.00189  -0.00599   0.000001000.00000
 287         D85       -0.00215  -0.00157   0.000001000.00000
 288         D86       -0.01389  -0.00429   0.000001000.00000
 289         D87       -0.00994   0.01073   0.000001000.00000
 290         D88       -0.00543  -0.01701   0.000001000.00000
 291         D89       -0.00148  -0.00198  -0.000001000.00000
 292         D90        0.08304   0.05270   0.000001000.00000
 293         D91        0.07474   0.06547   0.000001000.00000
 294         D92        0.00977   0.01285  -0.000001000.00000
 295         D93       -0.00646   0.01473   0.000001000.00000
 296         D94        0.01780   0.00035  -0.000001000.00000
 297         D95        0.00157   0.00223   0.000001000.00000
 298         D96       -0.00189   0.00994  -0.000001000.00000
 299         D97       -0.00212   0.01023   0.000001000.00000
 300         D98       -0.00583  -0.00505  -0.000001000.00000
 301         D99       -0.00606  -0.00476  -0.000001000.00000
 302         D100      -0.00944   0.00661  -0.000001000.00000
 303         D101      -0.00430   0.00072   0.000001000.00000
 304         D102       0.00395   0.00260  -0.000001000.00000
 305         D103       0.00510   0.01069   0.000001000.00000
 306         D104       0.00674   0.01026   0.000001000.00000
 307         D105       0.00394   0.01045   0.000001000.00000
 308         D106      -0.00407  -0.00673  -0.000001000.00000
 309         D107      -0.00508  -0.01294   0.000001000.00000
 310         D108       0.01610  -0.00297  -0.000001000.00000
 311         D109       0.01837  -0.00269  -0.000001000.00000
 312         D110       0.01186   0.00739  -0.000001000.00000
 313         D111       0.01413   0.00766   0.000001000.00000
 314         D112       0.00028  -0.01751   0.000001000.00000
 315         D113       0.00107  -0.00764   0.000001000.00000
 316         D114      -0.00200  -0.01769   0.000001000.00000
 317         D115      -0.00121  -0.00782  -0.000001000.00000
 318         D116       0.00276   0.01799   0.000001000.00000
 319         D117      -0.00259   0.02378   0.000001000.00000
 320         D118       0.00496   0.01823  -0.000001000.00000
 321         D119      -0.00039   0.02401   0.000001000.00000
 322         D120       0.00222   0.00081   0.000001000.00000
 323         D121       0.00097   0.00806   0.000001000.00000
 324         D122       0.00141  -0.00918  -0.000001000.00000
 325         D123       0.00017  -0.00193  -0.000001000.00000
 326         D124       0.00006   0.00990   0.000001000.00000
 327         D125      -0.00222   0.00693   0.000001000.00000
 328         D126       0.00130   0.00266   0.000001000.00000
 329         D127      -0.00098  -0.00030   0.000001000.00000
 330         D128      -0.00527  -0.00300   0.000001000.00000
 331         D129      -0.00244  -0.00332  -0.000001000.00000
 332         D130      -0.00301  -0.00007  -0.000001000.00000
 333         D131      -0.00018  -0.00038  -0.000001000.00000
 334         D132       0.00063  -0.00843   0.000001000.00000
 335         D133       0.00543  -0.01397  -0.000001000.00000
 336         D134      -0.00218  -0.00822   0.000001000.00000
 337         D135       0.00263  -0.01375   0.000001000.00000
 338         D136      -0.00030   0.00057  -0.000001000.00000
 339         D137       0.00076   0.00678   0.000001000.00000
 340         D138      -0.00105  -0.00783   0.000001000.00000
 341         D139       0.00002  -0.00162  -0.000001000.00000
 342         D140      -0.00190  -0.01369  -0.000001000.00000
 343         D141      -0.00626  -0.01241   0.000001000.00000
 344         D142      -0.00061  -0.00561   0.000001000.00000
 345         D143      -0.00497  -0.00432   0.000001000.00000
 346         D144       0.00178   0.01126  -0.000001000.00000
 347         D145       0.00100   0.00698   0.000001000.00000
 348         D146       0.00071   0.00514  -0.000001000.00000
 349         D147      -0.00008   0.00086  -0.000001000.00000
 350         D148      -0.00082  -0.00139   0.000001000.00000
 351         D149      -0.00042  -0.00029  -0.000001000.00000
 352         D150      -0.00003   0.00292   0.000001000.00000
 353         D151       0.00037   0.00402  -0.000001000.00000
 354         D152       0.00020  -0.00603  -0.000001000.00000
 355         D153       0.00140   0.00175  -0.000001000.00000
 356         D154      -0.00020  -0.00713   0.000001000.00000
 357         D155       0.00100   0.00065   0.000001000.00000
 358         D156       0.00052   0.00944   0.000001000.00000
 359         D157       0.00469   0.00811  -0.000001000.00000
 360         D158      -0.00068   0.00173   0.000001000.00000
 361         D159       0.00349   0.00039  -0.000001000.00000
 362         D160       0.00493  -0.03457  -0.000001000.00000
 363         D161       0.00560  -0.03470  -0.000001000.00000
 364         D162       0.00059  -0.03324   0.000001000.00000
 365         D163       0.00125  -0.03338  -0.000001000.00000
 366         D164       0.00630   0.00147  -0.000001000.00000
 367         D165       0.00656  -0.00298  -0.000001000.00000
 368         D166       0.00496   0.00147  -0.000001000.00000
 369         D167       0.00523  -0.00298  -0.000001000.00000
 370         D168       0.00231   0.00839   0.000001000.00000
 371         D169       0.01135  -0.00228  -0.000001000.00000
 372         D170      -0.00507  -0.00144   0.000001000.00000
 373         D171       0.00397  -0.01212   0.000001000.00000
 RFO step:  Lambda0=5.460125095D-06 Lambda=-6.11869912D-04.
 Linear search not attempted -- option 19 set.
 Iteration  1 RMS(Cart)=  0.04775801 RMS(Int)=  0.00037808
 Iteration  2 RMS(Cart)=  0.00077878 RMS(Int)=  0.00008676
 Iteration  3 RMS(Cart)=  0.00000026 RMS(Int)=  0.00008676
 Variable       Old X    -DE/DX   Delta X   Delta X   Delta X     New X
                                 (Linear)    (Quad)   (Total)
    R1        3.47860   0.00007   0.00000   0.00166   0.00166   3.48026
    R2        3.50032   0.00012   0.00000   0.00161   0.00161   3.50193
    R3        3.38330  -0.00010   0.00000   0.00019   0.00019   3.38348
    R4        3.99521   0.00006   0.00000  -0.00056  -0.00060   3.99461
    R5        5.37485   0.00005   0.00000   0.02952   0.02944   5.40429
    R6        4.07133  -0.00006   0.00000  -0.00823  -0.00817   4.06317
    R7        7.27221   0.00072   0.00000   0.08825   0.08829   7.36050
    R8        2.15542   0.00033   0.00000  -0.00015  -0.00015   2.15527
    R9        2.15337   0.00080   0.00000   0.00015   0.00015   2.15353
   R10        2.16530   0.00005   0.00000  -0.00018  -0.00018   2.16512
   R11        2.52029  -0.00011   0.00000  -0.00007  -0.00008   2.52022
   R12        2.54557   0.00012   0.00000  -0.00003  -0.00004   2.54553
   R13        2.63302   0.00002   0.00000  -0.00001   0.00001   2.63303
   R14        2.06002  -0.00005   0.00000  -0.00016  -0.00016   2.05987
   R15        2.61952   0.00014   0.00000   0.00026   0.00025   2.61977
   R16        2.06385   0.00000   0.00000  -0.00001  -0.00001   2.06383
   R17        2.63421   0.00018   0.00000   0.00030   0.00033   2.63454
   R18        2.63791  -0.00013   0.00000  -0.00049  -0.00051   2.63740
   R19        2.05895  -0.00014   0.00000  -0.00169  -0.00169   2.05726
   R20        2.18746  -0.00084   0.00000  -0.00031  -0.00028   2.18718
   R21        2.71500  -0.00110   0.00000  -0.00192  -0.00189   2.71311
   R22        2.64956   0.00011   0.00000   0.00002   0.00001   2.64957
   R23        2.64909   0.00002   0.00000   0.00016   0.00035   2.64944
   R24        2.62892  -0.00026   0.00000  -0.00044  -0.00043   2.62849
   R25        2.06111  -0.00002   0.00000  -0.00029  -0.00029   2.06083
   R26        2.06221   0.00000   0.00000  -0.00002  -0.00002   2.06219
   R27        2.63709  -0.00004   0.00000  -0.00009  -0.00007   2.63702
   R28        2.05878   0.00081   0.00000   0.00150   0.00165   2.06043
   R29        2.62871  -0.00030   0.00000  -0.00061  -0.00062   2.62809
   R30       13.03854   0.00005   0.00000  -0.15350  -0.15372  12.88482
   R31       11.61949   0.00011   0.00000   0.03640   0.03641  11.65591
   R32        2.54183  -0.00011   0.00000  -0.00010  -0.00004   2.54179
   R33        2.52077   0.00028   0.00000   0.00072   0.00063   2.52140
   R34        2.63254  -0.00024   0.00000  -0.00056  -0.00049   2.63205
   R35        2.06010  -0.00008   0.00000  -0.00032  -0.00011   2.06000
   R36        2.61967   0.00007   0.00000   0.00013   0.00016   2.61983
   R37        2.63539  -0.00006   0.00000  -0.00053  -0.00038   2.63501
   R38        2.06334   0.00014   0.00000   0.00030   0.00030   2.06364
   R39        2.06754   0.00001   0.00000  -0.00034  -0.00034   2.06720
   R40        2.06018   0.00000   0.00000  -0.00002  -0.00002   2.06017
   R41        3.37138  -0.00005   0.00000  -0.00043  -0.00040   3.37098
   R42        3.36999  -0.00014   0.00000  -0.00038  -0.00033   3.36966
   R43        3.35176   0.00025   0.00000   0.00111   0.00113   3.35288
   R44        3.35469  -0.00010   0.00000  -0.00035  -0.00036   3.35434
   R45        2.81104   0.00017   0.00000   0.00044   0.00046   2.81150
   R46        2.64318   0.00011   0.00000   0.00062   0.00062   2.64380
   R47        2.66313   0.00027   0.00000   0.00060   0.00065   2.66378
   R48        2.63105  -0.00002   0.00000  -0.00027  -0.00027   2.63078
   R49        2.06349   0.00002   0.00000   0.00002   0.00002   2.06352
   R50        2.62907   0.00010   0.00000   0.00001   0.00001   2.62908
   R51        2.06219  -0.00001   0.00000  -0.00004  -0.00004   2.06215
   R52        2.64003  -0.00006   0.00000  -0.00023  -0.00023   2.63979
   R53        2.06307  -0.00002   0.00000  -0.00005  -0.00005   2.06302
   R54        2.64876   0.00001   0.00000   0.00031   0.00032   2.64908
   R55        2.65092  -0.00011   0.00000  -0.00069  -0.00070   2.65022
   R56        2.66550  -0.00027   0.00000  -0.00122  -0.00119   2.66431
   R57        2.63914   0.00007   0.00000   0.00031   0.00031   2.63945
   R58        2.62811   0.00006   0.00000   0.00045   0.00045   2.62855
   R59        2.06290   0.00001   0.00000   0.00005   0.00005   2.06295
   R60        2.62936  -0.00001   0.00000   0.00046   0.00045   2.62982
   R61        2.06206   0.00001   0.00000   0.00004   0.00004   2.06210
   R62        2.64715  -0.00015   0.00000  -0.00130  -0.00130   2.64585
   R63        2.06381  -0.00014   0.00000  -0.00030  -0.00030   2.06352
   R64        2.81344  -0.00012   0.00000  -0.00071  -0.00072   2.81272
   R65        2.63955   0.00005   0.00000  -0.00095  -0.00092   2.63863
   R66        2.05173   0.00012   0.00000   0.00175   0.00175   2.05349
   R67        2.63692  -0.00004   0.00000   0.00008   0.00009   2.63700
   R68        2.06307  -0.00002   0.00000  -0.00005  -0.00005   2.06303
   R69        2.06216  -0.00001   0.00000  -0.00004  -0.00004   2.06212
    A1        1.55834   0.00014   0.00000   0.00435   0.00435   1.56269
    A2        1.59971  -0.00005   0.00000  -0.00084  -0.00086   1.59885
    A3        3.07024   0.00021   0.00000   0.00506   0.00514   3.07539
    A4        3.32246   0.00001   0.00000  -0.00718  -0.00712   3.31534
    A5        1.73604   0.00016   0.00000   0.00587   0.00611   1.74214
    A6        1.57136   0.00016   0.00000  -0.00268  -0.00284   1.56852
    A7        1.25217   0.00030   0.00000   0.00212   0.00223   1.25441
    A8        1.54758   0.00046   0.00000  -0.00071  -0.00069   1.54690
    A9        1.51190   0.00007   0.00000   0.00071   0.00079   1.51269
   A10        1.98658   0.00025   0.00000  -0.01761  -0.01772   1.96886
   A11        3.12970   0.00030   0.00000   0.00167   0.00151   3.13121
   A12        3.17135  -0.00032   0.00000  -0.00766  -0.00764   3.16371
   A13        1.01274  -0.00148   0.00000  -0.02134  -0.02131   0.99142
   A14        1.72076   0.00010   0.00000  -0.00626  -0.00617   1.71459
   A15        3.33575   0.00011   0.00000   0.00503   0.00524   3.34099
   A16        3.53766   0.00076   0.00000  -0.01734  -0.01739   3.52026
   A17        1.56461  -0.00016   0.00000   0.00830   0.00827   1.57288
   A18        2.85189   0.00025   0.00000   0.00128   0.00137   2.85326
   A19        2.53140  -0.00111   0.00000  -0.02472  -0.02466   2.50673
   A20        1.27178  -0.00022   0.00000  -0.00393  -0.00411   1.26767
   A21        1.64672  -0.00042   0.00000  -0.00392  -0.00378   1.64294
   A22        1.69912  -0.00014   0.00000   0.00758   0.00752   1.70664
   A23        1.18640  -0.00061   0.00000   0.00983   0.00998   1.19638
   A24        2.15215   0.00129   0.00000   0.01475   0.01469   2.16684
   A25        3.17306  -0.00001   0.00000  -0.00076  -0.00076   3.17230
   A26        3.16782  -0.00003   0.00000  -0.00071  -0.00071   3.16711
   A27        3.17063   0.00005   0.00000  -0.00068  -0.00068   3.16995
   A28        3.18671   0.00010   0.00000  -0.00074  -0.00074   3.18597
   A29        3.17762  -0.00003   0.00000  -0.00289  -0.00289   3.17473
   A30        3.30437  -0.00238   0.00000  -0.01260  -0.01260   3.29178
   A31        3.12369   0.00034   0.00000   0.00134   0.00134   3.12504
   A32        3.17936  -0.00077   0.00000  -0.01184  -0.01184   3.16752
   A33        2.19599  -0.00000   0.00000  -0.00445  -0.00452   2.19147
   A34        2.02417   0.00008   0.00000   0.00501   0.00505   2.02922
   A35        2.06109  -0.00008   0.00000  -0.00085  -0.00083   2.06026
   A36        2.11816   0.00000   0.00000  -0.00047  -0.00046   2.11769
   A37        2.07909   0.00002   0.00000   0.00080   0.00078   2.07986
   A38        2.08547  -0.00002   0.00000  -0.00020  -0.00019   2.08528
   A39        2.10734   0.00007   0.00000   0.00014   0.00013   2.10747
   A40        2.07627  -0.00007   0.00000  -0.00017  -0.00016   2.07611
   A41        2.09948   0.00000   0.00000   0.00010   0.00009   2.09957
   A42        2.15783   0.00016   0.00000   0.00198   0.00198   2.15980
   A43        2.05016  -0.00020   0.00000  -0.00124  -0.00123   2.04893
   A44        2.07517   0.00004   0.00000  -0.00076  -0.00076   2.07441
   A45        2.73097  -0.00095   0.00000  -0.00829  -0.00855   2.72241
   A46        2.33226   0.00043   0.00000  -0.00607  -0.00608   2.32618
   A47        3.15765  -0.00061   0.00000  -0.01653  -0.01656   3.14109
   A48        3.06275  -0.00007   0.00000  -0.00047  -0.00053   3.06222
   A49        3.05785   0.00002   0.00000   0.00234   0.00252   3.06037
   A50        3.09220   0.00081   0.00000   0.02486   0.02472   3.11693
   A51        2.08190  -0.00022   0.00000   0.00293   0.00261   2.08451
   A52        2.09662  -0.00016   0.00000  -0.00475  -0.00443   2.09219
   A53        2.10355   0.00038   0.00000   0.00162   0.00162   2.10517
   A54        2.08481  -0.00023   0.00000  -0.00116  -0.00117   2.08364
   A55        2.09223   0.00015   0.00000   0.00104   0.00104   2.09327
   A56        2.10611   0.00008   0.00000   0.00014   0.00015   2.10625
   A57        2.08907   0.00003   0.00000   0.00015   0.00014   2.08921
   A58        2.09626  -0.00007   0.00000  -0.00010  -0.00008   2.09618
   A59        2.09785   0.00004   0.00000  -0.00004  -0.00005   2.09780
   A60        2.09128   0.00078   0.00000  -0.00001  -0.00004   2.09124
   A61        2.08501  -0.00032   0.00000  -0.00085  -0.00087   2.08415
   A62        2.10677  -0.00045   0.00000   0.00094   0.00097   2.10774
   A63        0.82993   0.00032   0.00000   0.00544   0.00540   0.83533
   A64        1.93872   0.00078   0.00000   0.01978   0.01969   1.95841
   A65        2.10407  -0.00048   0.00000  -0.00695  -0.00721   2.09686
   A66        2.12676   0.00045   0.00000   0.00687   0.00708   2.13383
   A67        2.05227   0.00003   0.00000  -0.00010  -0.00015   2.05212
   A68        2.11422  -0.00026   0.00000   0.00103   0.00129   2.11551
   A69        2.08013   0.00002   0.00000  -0.00018  -0.00032   2.07981
   A70        2.08883   0.00024   0.00000  -0.00090  -0.00114   2.08769
   A71        2.07659  -0.00001   0.00000  -0.00123  -0.00125   2.07534
   A72        2.10544  -0.00005   0.00000   0.00113   0.00113   2.10657
   A73        2.10116   0.00006   0.00000   0.00010   0.00010   2.10125
   A74        0.86688  -0.00005   0.00000   0.04691   0.04693   0.91382
   A75        2.13466  -0.00001   0.00000  -0.00016  -0.00018   2.13448
   A76        2.03555   0.00016   0.00000   0.00140   0.00141   2.03696
   A77        2.11290  -0.00014   0.00000  -0.00125  -0.00124   2.11166
   A78        2.13952   0.00004   0.00000   0.00078   0.00093   2.14045
   A79        2.04320  -0.00002   0.00000  -0.00050  -0.00059   2.04261
   A80        2.10039  -0.00003   0.00000  -0.00035  -0.00044   2.09996
   A81        1.76653   0.00004   0.00000  -0.00127  -0.00121   1.76532
   A82        1.76857   0.00006   0.00000  -0.00009  -0.00003   1.76854
   A83        2.05274  -0.00002   0.00000  -0.00067  -0.00071   2.05203
   A84        2.13996  -0.00011   0.00000  -0.00021  -0.00026   2.13970
   A85        2.09042   0.00012   0.00000   0.00105   0.00103   2.09145
   A86        2.08921  -0.00006   0.00000  -0.00447  -0.00449   2.08472
   A87        2.11530   0.00020   0.00000   0.00575   0.00576   2.12106
   A88        2.07843  -0.00014   0.00000  -0.00111  -0.00112   2.07730
   A89        2.11006  -0.00000   0.00000   0.00071   0.00072   2.11078
   A90        2.07675   0.00003   0.00000   0.00012   0.00011   2.07686
   A91        2.09616  -0.00003   0.00000  -0.00086  -0.00086   2.09530
   A92        2.09512   0.00007   0.00000   0.00002   0.00002   2.09514
   A93        2.09522  -0.00004   0.00000  -0.00012  -0.00013   2.09509
   A94        2.09276  -0.00003   0.00000   0.00008   0.00008   2.09284
   A95        2.09100   0.00002   0.00000  -0.00014  -0.00014   2.09086
   A96        2.10399   0.00001   0.00000   0.00018   0.00018   2.10417
   A97        2.08812  -0.00003   0.00000  -0.00002  -0.00002   2.08809
   A98        2.07337   0.00007   0.00000  -0.00079  -0.00080   2.07257
   A99        2.10625  -0.00002   0.00000   0.00083   0.00083   2.10708
   A100       2.10229  -0.00005   0.00000   0.00010   0.00010   2.10240
   A101       2.10658   0.00001   0.00000   0.00080   0.00085   2.10743
   A102       2.08536  -0.00011   0.00000  -0.00106  -0.00111   2.08425
   A103       2.08835   0.00011   0.00000   0.00042   0.00042   2.08877
   A104       2.07976   0.00012   0.00000   0.00182   0.00179   2.08155
   A105       2.11185  -0.00017   0.00000  -0.00178  -0.00173   2.11012
   A106       2.08880   0.00005   0.00000   0.00009   0.00007   2.08887
   A107       2.11093  -0.00013   0.00000  -0.00145  -0.00146   2.10948
   A108       2.06577   0.00020   0.00000   0.00271   0.00270   2.06847
   A109       2.10515  -0.00006   0.00000  -0.00117  -0.00116   2.10399
   A110       2.08945  -0.00000   0.00000   0.00060   0.00061   2.09006
   A111       2.08844   0.00000   0.00000  -0.00017  -0.00018   2.08826
   A112       2.10524  -0.00000   0.00000  -0.00043  -0.00044   2.10480
   A113       2.09404  -0.00006   0.00000   0.00026   0.00026   2.09430
   A114       2.09380   0.00005   0.00000  -0.00020  -0.00020   2.09360
   A115       2.09522   0.00001   0.00000  -0.00006  -0.00006   2.09517
   A116       2.11582  -0.00003   0.00000  -0.00186  -0.00187   2.11395
   A117       2.09002   0.00009   0.00000   0.00203   0.00203   2.09205
   A118       2.07702  -0.00007   0.00000  -0.00012  -0.00012   2.07690
   A119       2.07215   0.00010   0.00000   0.00206   0.00207   2.07422
   A120       2.14648  -0.00030   0.00000  -0.00878  -0.00880   2.13768
   A121       2.06450   0.00020   0.00000   0.00669   0.00670   2.07120
   A122       2.13159  -0.00026   0.00000   0.00103   0.00108   2.13267
   A123       2.04658   0.00017   0.00000   0.00254   0.00259   2.04917
   A124       2.10391   0.00010   0.00000  -0.00283  -0.00307   2.10084
   A125       2.16933  -0.00024   0.00000  -0.00193  -0.00196   2.16736
   A126       2.04511   0.00006   0.00000   0.00128   0.00129   2.04640
   A127       2.06870   0.00018   0.00000   0.00064   0.00065   2.06935
   A128       2.10034   0.00018   0.00000   0.00094   0.00096   2.10130
   A129       2.09135  -0.00008   0.00000  -0.00046  -0.00047   2.09087
   A130       2.09150  -0.00010   0.00000  -0.00047  -0.00048   2.09101
   A131       2.09631   0.00006   0.00000  -0.00042  -0.00043   2.09589
   A132       2.08902  -0.00004   0.00000   0.00038   0.00038   2.08940
   A133       2.09784  -0.00002   0.00000   0.00006   0.00006   2.09790
    D1        2.16154   0.00061   0.00000   0.03703   0.03710   2.19864
    D2       -1.04846   0.00048   0.00000   0.03190   0.03195  -1.01651
    D3        0.62317   0.00014   0.00000   0.03724   0.03729   0.66046
    D4       -2.58682   0.00001   0.00000   0.03211   0.03214  -2.55469
    D5       -2.09350   0.00090   0.00000   0.01879   0.01874  -2.07476
    D6        0.97969   0.00077   0.00000   0.01366   0.01359   0.99328
    D7       -0.95284   0.00035   0.00000   0.02989   0.02993  -0.92291
    D8        2.12035   0.00022   0.00000   0.02477   0.02478   2.14513
    D9       -3.12422  -0.00086   0.00000   0.01423   0.01430  -3.10991
   D10       -0.05103  -0.00099   0.00000   0.00911   0.00915  -0.04187
   D11       -1.00599   0.00001   0.00000  -0.01075  -0.01083  -1.01682
   D12        2.73908  -0.00005   0.00000  -0.00273  -0.00284   2.73624
   D13       -2.97697  -0.00038   0.00000  -0.01068  -0.01078  -2.98775
   D14        0.76810  -0.00044   0.00000  -0.00265  -0.00279   0.76531
   D15        2.34344  -0.00008   0.00000  -0.02100  -0.02112   2.32232
   D16       -0.19467  -0.00014   0.00000  -0.01298  -0.01314  -0.20781
   D17        0.17404  -0.00027   0.00000  -0.01430  -0.01457   0.15947
   D18       -2.36407  -0.00034   0.00000  -0.00628  -0.00659  -2.37066
   D19        0.63791   0.00039   0.00000   0.06072   0.06064   0.69855
   D20       -2.51845   0.00025   0.00000   0.04560   0.04558  -2.47287
   D21        2.23762   0.00034   0.00000   0.05990   0.05978   2.29740
   D22       -0.91874   0.00019   0.00000   0.04478   0.04472  -0.87402
   D23       -2.32484   0.00042   0.00000   0.05423   0.05418  -2.27067
   D24        0.80199   0.00028   0.00000   0.03912   0.03911   0.84110
   D25       -1.11104   0.00023   0.00000   0.05398   0.05364  -1.05740
   D26        2.01579   0.00009   0.00000   0.03886   0.03858   2.05437
   D27       -0.54906   0.00024   0.00000   0.06392   0.06393  -0.48514
   D28        2.57776   0.00010   0.00000   0.04880   0.04886   2.62663
   D29        2.98104  -0.00026   0.00000   0.00075   0.00073   2.98177
   D30       -0.16736  -0.00020   0.00000  -0.00203  -0.00203  -0.16939
   D31       -0.09084  -0.00013   0.00000   0.00577   0.00576  -0.08509
   D32        3.04393  -0.00007   0.00000   0.00299   0.00300   3.04694
   D33       -3.06517   0.00034   0.00000   0.00891   0.00894  -3.05623
   D34        0.06386   0.00030   0.00000   0.00780   0.00783   0.07169
   D35        0.01356   0.00023   0.00000   0.00402   0.00402   0.01758
   D36       -3.14059   0.00018   0.00000   0.00291   0.00291  -3.13768
   D37       -0.02119  -0.00001   0.00000   0.00255   0.00255  -0.01864
   D38        3.13553  -0.00013   0.00000  -0.00291  -0.00290   3.13263
   D39        3.08734   0.00007   0.00000   0.00720   0.00717   3.09451
   D40       -0.03912  -0.00005   0.00000   0.00173   0.00172  -0.03740
   D41        0.05022  -0.00014   0.00000  -0.00777  -0.00775   0.04248
   D42       -3.07827  -0.00010   0.00000  -0.00663  -0.00661  -3.08488
   D43       -3.12380  -0.00006   0.00000  -0.00322  -0.00322  -3.12702
   D44        0.03090  -0.00002   0.00000  -0.00208  -0.00208   0.02882
   D45       -0.03078   0.00015   0.00000   0.00727   0.00725  -0.02353
   D46        3.09822   0.00019   0.00000   0.02279   0.02275   3.12096
   D47        3.12587   0.00003   0.00000   0.00183   0.00183   3.12770
   D48       -0.02832   0.00007   0.00000   0.01735   0.01732  -0.01100
   D49        0.09970  -0.00006   0.00000  -0.01142  -0.01140   0.08830
   D50       -3.02967  -0.00009   0.00000  -0.02647  -0.02643  -3.05611
   D51       -3.03499  -0.00012   0.00000  -0.00860  -0.00860  -3.04359
   D52        0.11883  -0.00015   0.00000  -0.02365  -0.02364   0.09519
   D53       -3.07651  -0.00003   0.00000   0.00124   0.00114  -3.07537
   D54        0.05569   0.00003   0.00000   0.00386   0.00375   0.05944
   D55        0.01428  -0.00009   0.00000  -0.00334  -0.00329   0.01099
   D56       -3.13671  -0.00003   0.00000  -0.00073  -0.00068  -3.13739
   D57       -0.04470  -0.00007   0.00000  -0.00893  -0.00897  -0.05367
   D58        3.08023   0.00006   0.00000  -0.00376  -0.00361   3.07663
   D59       -3.13506  -0.00001   0.00000  -0.00453  -0.00472  -3.13978
   D60       -0.01013   0.00012   0.00000   0.00064   0.00064  -0.00949
   D61        3.13419   0.00002   0.00000   0.00153   0.00151   3.13570
   D62       -0.00883   0.00005   0.00000   0.00452   0.00447  -0.00436
   D63        0.00206  -0.00004   0.00000  -0.00110  -0.00112   0.00095
   D64       -3.14096  -0.00002   0.00000   0.00188   0.00184  -3.13912
   D65       -0.00066  -0.00003   0.00000  -0.00302  -0.00303  -0.00369
   D66        3.13985  -0.00003   0.00000  -0.00317  -0.00314   3.13671
   D67        3.13950  -0.00000   0.00000  -0.00002  -0.00006   3.13944
   D68       -0.00318  -0.00001   0.00000  -0.00017  -0.00017  -0.00335
   D69        0.18874   0.00033   0.00000  -0.01224  -0.01184   0.17690
   D70       -0.09796   0.00042   0.00000   0.01224   0.01263  -0.08533
   D71       -2.93598   0.00019   0.00000  -0.01745  -0.01726  -2.95324
   D72        3.06050   0.00028   0.00000   0.00703   0.00722   3.06772
   D73        0.00053  -0.00011   0.00000   0.00088   0.00083   0.00136
   D74       -3.13520  -0.00008   0.00000  -0.00170  -0.00176  -3.13696
   D75        3.12531   0.00004   0.00000   0.00609   0.00623   3.13154
   D76       -0.01042   0.00007   0.00000   0.00350   0.00364  -0.00678
   D77        1.84595  -0.00039   0.00000  -0.01956  -0.01896   1.82699
   D78        3.11702  -0.00023   0.00000  -0.01986  -0.01971   3.09731
   D79       -0.01154   0.00017   0.00000  -0.01330  -0.01324  -0.02478
   D80       -0.01042  -0.00010   0.00000  -0.00544  -0.00540  -0.01583
   D81       -3.13898   0.00030   0.00000   0.00113   0.00106  -3.13792
   D82       -3.06771  -0.00005   0.00000   0.01994   0.01996  -3.04775
   D83        0.08498   0.00014   0.00000   0.02178   0.02178   0.10677
   D84        0.05953  -0.00019   0.00000   0.00519   0.00521   0.06474
   D85       -3.07095  -0.00000   0.00000   0.00704   0.00703  -3.06392
   D86       -3.11443  -0.00063   0.00000  -0.01772  -0.01762  -3.13205
   D87        0.02873  -0.00035   0.00000  -0.01175  -0.01169   0.01704
   D88        0.03087  -0.00028   0.00000  -0.00165  -0.00160   0.02927
   D89       -3.10916   0.00000   0.00000   0.00431   0.00433  -3.10483
   D90       -1.82215  -0.00024   0.00000  -0.00772  -0.00787  -1.83002
   D91        1.31572  -0.00059   0.00000  -0.02386  -0.02396   1.29176
   D92       -0.03380   0.00033   0.00000   0.00375   0.00368  -0.03012
   D93        3.09434  -0.00009   0.00000  -0.00302  -0.00299   3.09135
   D94        3.11144   0.00068   0.00000   0.01958   0.01944   3.13088
   D95       -0.04360   0.00026   0.00000   0.01280   0.01277  -0.03083
   D96        3.10434   0.00010   0.00000   0.01788   0.01789   3.12223
   D97        0.01308   0.00003   0.00000   0.00142   0.00142   0.01450
   D98       -0.03881  -0.00019   0.00000   0.01193   0.01198  -0.02683
   D99       -3.13007  -0.00025   0.00000  -0.00453  -0.00449  -3.13456
   D100      -2.41416   0.00002   0.00000   0.00484   0.00479  -2.40937
   D101       0.80935   0.00002   0.00000   0.00252   0.00248   0.81183
   D102      -0.80459  -0.00018   0.00000  -0.00180  -0.00178  -0.80638
   D103       2.41738  -0.00013   0.00000  -0.00376  -0.00374   2.41364
   D104       2.43059  -0.00002   0.00000  -0.00144  -0.00142   2.42917
   D105      -0.76497  -0.00001   0.00000   0.00161   0.00162  -0.76336
   D106       0.76910  -0.00008   0.00000  -0.00047  -0.00050   0.76859
   D107      -2.42752  -0.00007   0.00000   0.00122   0.00120  -2.42633
   D108       1.08051   0.00014   0.00000  -0.02332  -0.02331   1.05720
   D109      -2.03715   0.00009   0.00000  -0.03164  -0.03161  -2.06877
   D110      -2.07395   0.00018   0.00000  -0.00749  -0.00749  -2.08143
   D111       1.09158   0.00013   0.00000  -0.01582  -0.01579   1.07579
   D112       3.12749  -0.00004   0.00000  -0.00705  -0.00700   3.12050
   D113       0.00814  -0.00002   0.00000  -0.00541  -0.00537   0.00277
   D114      -0.03753   0.00001   0.00000   0.00120   0.00120  -0.03633
   D115       3.12631   0.00003   0.00000   0.00283   0.00282   3.12913
   D116       0.09222   0.00005   0.00000   0.00751   0.00750   0.09972
   D117      -3.13143   0.00004   0.00000   0.00976   0.00974  -3.12169
   D118      -3.02559  -0.00000   0.00000  -0.00072  -0.00073  -3.02631
   D119       0.03395  -0.00001   0.00000   0.00153   0.00151   0.03546
   D120       0.00356  -0.00001   0.00000  -0.00275  -0.00273   0.00083
   D121      -3.12370   0.00000   0.00000  -0.00062  -0.00063  -3.12433
   D122       3.12267  -0.00003   0.00000  -0.00439  -0.00436   3.11831
   D123      -0.00460  -0.00002   0.00000  -0.00226  -0.00225  -0.00685
   D124       0.03403   0.00001   0.00000   0.00155   0.00154   0.03557
   D125      -3.12101   0.00002   0.00000   0.00296   0.00294  -3.11807
   D126      -3.12187  -0.00000   0.00000  -0.00057  -0.00056  -3.12244
   D127       0.00627   0.00000   0.00000   0.00084   0.00084   0.00711
   D128       3.05045   0.00001   0.00000   0.00426   0.00423   3.05468
   D129      -0.03731  -0.00000   0.00000   0.00120   0.00118  -0.03612
   D130      -0.07782   0.00000   0.00000   0.00286   0.00284  -0.07498
   D131       3.11761  -0.00001   0.00000  -0.00020  -0.00021   3.11740
   D132      -0.02311  -0.00002   0.00000  -0.00351  -0.00348  -0.02659
   D133      -3.08365  -0.00002   0.00000  -0.00582  -0.00578  -3.08944
   D134       3.06362   0.00000   0.00000  -0.00044  -0.00042   3.06320
   D135       0.00308   0.00000   0.00000  -0.00275  -0.00273   0.00035
   D136       0.01817   0.00012   0.00000   0.00043   0.00044   0.01861
   D137      -3.06715   0.00010   0.00000  -0.00143  -0.00142  -3.06857
   D138       3.08047   0.00006   0.00000   0.00228   0.00228   3.08275
   D139      -0.00486   0.00004   0.00000   0.00042   0.00043  -0.00443
   D140       3.03141  -0.00014   0.00000   0.00131   0.00128   3.03270
   D141      -0.09837  -0.00018   0.00000   0.00435   0.00429  -0.09407
   D142      -0.02939  -0.00010   0.00000  -0.00075  -0.00076  -0.03015
   D143       3.12401  -0.00013   0.00000   0.00230   0.00225   3.12627
   D144      -3.05026   0.00002   0.00000  -0.00167  -0.00166  -3.05192
   D145       0.08026  -0.00002   0.00000  -0.00210  -0.00211   0.07815
   D146       0.03650   0.00003   0.00000   0.00001   0.00002   0.03652
   D147      -3.11617  -0.00001   0.00000  -0.00042  -0.00042  -3.11659
   D148      -0.03326  -0.00005   0.00000  -0.00018  -0.00019  -0.03345
   D149       3.12506  -0.00002   0.00000  -0.00064  -0.00064   3.12442
   D150       3.11952  -0.00001   0.00000   0.00026   0.00026   3.11977
   D151      -0.00535   0.00002   0.00000  -0.00020  -0.00020  -0.00555
   D152      -0.00160   0.00000   0.00000  -0.00012  -0.00012  -0.00171
   D153      -3.11513   0.00006   0.00000  -0.00197  -0.00196  -3.11709
   D154       3.12326  -0.00003   0.00000   0.00034   0.00034   3.12359
   D155       0.00972   0.00003   0.00000  -0.00151  -0.00151   0.00821
   D156       0.03290   0.00007   0.00000   0.00058   0.00059   0.03349
   D157      -3.11995   0.00010   0.00000  -0.00242  -0.00241  -3.12236
   D158      -3.13655   0.00001   0.00000   0.00245   0.00245  -3.13410
   D159      -0.00621   0.00004   0.00000  -0.00055  -0.00055  -0.00675
   D160       2.23207  -0.00039   0.00000  -0.06413  -0.06412   2.16795
   D161      -0.96147  -0.00032   0.00000  -0.04698  -0.04701  -1.00848
   D162      -0.89776  -0.00042   0.00000  -0.06107  -0.06108  -0.95884
   D163       2.19189  -0.00035   0.00000  -0.04392  -0.04397   2.14791
   D164      -0.06102   0.00022   0.00000  -0.00331  -0.00335  -0.06437
   D165       3.06932   0.00003   0.00000  -0.00517  -0.00519   3.06414
   D166       3.13005   0.00016   0.00000  -0.01960  -0.01962   3.11043
   D167      -0.02278  -0.00002   0.00000  -0.02147  -0.02146  -0.04425
   D168       0.00486   0.00006   0.00000   0.00029   0.00034   0.00521
   D169       3.14056   0.00003   0.00000   0.00289   0.00295  -3.13967
   D170      -3.13564   0.00007   0.00000   0.00044   0.00046  -3.13519
   D171       0.00005   0.00004   0.00000   0.00304   0.00306   0.00312
         Item               Value     Threshold  Converged?
 Maximum Force            0.002383     0.000450     NO 
 RMS     Force            0.000297     0.000300     YES
 Maximum Displacement     0.203379     0.001800     NO 
 RMS     Displacement     0.047988     0.001200     NO 
 Predicted change in Energy=-3.327797D-04
 GradGradGradGradGradGradGradGradGradGradGradGradGradGradGradGradGradGrad

 Stoichiometry    C32H19BrMnN3O3S2
 Framework group  C1[X(C32H19BrMnN3O3S2)]
 Deg. of freedom   177
 Full point group                 C1      NOp   1
 Largest Abelian subgroup         C1      NOp   1
 Largest concise Abelian subgroup C1      NOp   1
                         Standard orientation:                         
 ---------------------------------------------------------------------
 Center     Atomic      Atomic             Coordinates (Angstroms)
 Number     Number       Type             X           Y           Z
 ---------------------------------------------------------------------
      1         25           0        2.526241   -0.390435   -1.153080
      2          6           0        3.755922   -1.743379   -1.374869
      3          8           0        4.534254   -2.560153   -1.541789
      4          6           0        3.753309    0.816875   -1.839258
      5          8           0        4.416821    1.550951   -2.404560
      6          6           0        1.893974   -0.624831   -2.811709
      7          7           0        1.358672    1.288605   -0.618289
      8          6           0        1.261116    3.279908    0.707286
      9          6           0       -0.090453    3.436625    0.407127
     10          6           0        0.083475    1.485707   -0.955366
     11          1           0        1.783656    3.984950    1.353847
     12          1           0       -0.663865    4.264658    0.829403
     13          7           0        2.383769   -0.324256    1.702428
     14          6           0        1.442860   -0.187801    2.362467
     15          6           0        0.211931   -0.035692    3.085631
     16          6           0       -0.515839   -1.175895    3.454612
     17          6           0       -1.746689   -1.025569    4.084783
     18          6           0       -0.284019    1.247074    3.358047
     19          1           0       -0.117722   -2.168402    3.240799
     20          1           0        0.291983    2.124849    3.063830
     21          7           0        1.101058   -1.815297   -0.403615
     22          6           0        0.618805   -3.716521    0.973115
     23          6           0       -0.742075   -3.597807    0.701340
     24          1           0        0.997923   -4.502722    1.626170
     25          6           0        1.943716    2.185707    0.198683
     26          1           0        2.990959    2.004885    0.457984
     27          6           0        1.500724   -2.801509    0.419080
     28          1           0        2.563689   -2.848363    0.656631
     29          1           0       -2.320047   -1.909423    4.369247
     30          8           0        1.460126   -0.783731   -3.860148
     31         16           0       -2.512635    0.171712    0.546534
     32         16           0       -5.560488    0.401910   -0.348880
     33          6           0       -0.706656    2.511295   -0.434113
     34          6           0       -2.149942    2.586085   -0.787430
     35          6           0       -2.637670    3.716533   -1.451896
     36          6           0       -3.977277    3.808295   -1.819476
     37          6           0       -4.852866    2.767659   -1.526234
     38          6           0       -4.393187    1.650481   -0.824814
     39          6           0       -3.045594    1.550635   -0.451778
     40          1           0       -1.945685    4.523611   -1.701237
     41          1           0       -4.338588    4.689841   -2.351586
     42          1           0       -5.900121    2.821162   -1.829901
     43          6           0       -3.293852   -1.189233   -0.300309
     44          6           0       -4.640005   -1.079680   -0.678072
     45          6           0       -5.303098   -2.160267   -1.264178
     46          6           0       -4.636195   -3.368881   -1.435333
     47          6           0       -3.301321   -3.486166   -1.059811
     48          6           0       -2.606513   -2.402342   -0.509431
     49          1           0       -6.344194   -2.051379   -1.574011
     50          1           0       -5.155980   -4.220052   -1.878143
     51          1           0       -2.773268   -4.429070   -1.216275
     52          6           0       -1.173238   -2.581161   -0.150041
     53          1           0       -1.462459   -4.283841    1.151826
     54          6           0       -0.198391   -1.745193   -0.698213
     55          1           0       -0.504940   -0.993597   -1.420680
     56          1           0       -0.352185    0.806561   -1.686208
     57          6           0       -2.246030    0.250218    4.349934
     58          6           0       -1.515202    1.383273    3.990305
     59          1           0       -1.907889    2.379402    4.200784
     60          1           0       -3.214749    0.362482    4.840654
     61         35           0        5.792429    0.622879    0.711407
 ---------------------------------------------------------------------
 Rotational constants (GHZ):           0.1079922           0.0501464           0.0480181
 Basis read from rwf:  (5D, 7F)
 There are   800 symmetry adapted cartesian basis functions of A   symmetry.
 There are   749 symmetry adapted basis functions of A   symmetry.
   749 basis functions,  1349 primitive gaussians,   800 cartesian basis functions
   174 alpha electrons      174 beta electrons
       nuclear repulsion energy      6709.8292340403 Hartrees.
 NAtoms=   61 NActive=   61 NUniq=   61 SFac= 1.00D+00 NAtFMM=   60 NAOKFM=T Big=T
 Integral buffers will be    131072 words long.
 Raffenetti 2 integral format.
 Two-electron integral symmetry is turned on.
 Nuclear repulsion after empirical dispersion term =     6709.7589979064 Hartrees.
 ------------------------------------------------------------------------------
 Polarizable Continuum Model (PCM)
 =================================
 Model                : PCM.
 Atomic radii         : UFF (Universal Force Field).
 Polarization charges : Total charges.
 Charge compensation  : None.
 Solution method      : On-the-fly selection.
 Cavity type          : Scaled VdW (van der Waals Surface) (Alpha=1.100).
 Cavity algorithm     : GePol (No added spheres)
                        Default sphere list used, NSphG=   61.
                        Lebedev-Laikov grids with approx.  5.0 points / Ang**2.
                        Smoothing algorithm: York/Karplus (Gamma=1.0000).
                        Polarization charges: spherical gaussians, with
                                              point-specific exponents (IZeta= 3).
                        Self-potential: point-specific (ISelfS= 7).
                        Self-field    : sphere-specific E.n sum rule (ISelfD= 2).
 1st derivatives      : Analytical E(r).r(x)/FMM algorithm (CHGder, D1EAlg=3).
                        Cavity 1st derivative terms included.
 Solvent              : TetraHydroFuran, Eps=   7.425700 Eps(inf)=   1.974025
 ------------------------------------------------------------------------------
 One-electron integrals computed using PRISM.
 PrsmSu:  requested number of processors reduced to:  11 ShMem   1 Linda.
 NBasis=   749 RedAO= T EigKep=  2.26D-04  NBF=   749
 NBsUse=   749 1.00D-06 EigRej= -1.00D+00 NBFU=   749
 Initial guess from the checkpoint file:  "checkpoint.chk"
 B after Tr=     0.000000   -0.000000    0.000000
         Rot=    0.999126    0.041743   -0.001403    0.001472 Ang=   4.79 deg.
 ExpMin= 3.93D-02 ExpMax= 2.77D+05 ExpMxC= 1.70D+04 IAcc=3 IRadAn=         5 AccDes= 0.00D+00
 Harris functional with IExCor= 4639 and IRadAn=       5 diagonalized for initial guess.
 HarFok:  IExCor= 4639 AccDes= 0.00D+00 IRadAn=         5 IDoV= 1 UseB2=F ITyADJ=14
 ICtDFT=  3500011 ScaDFX=  1.000000  1.000000  1.000000  1.000000
 FoFCou: FMM=F IPFlag=           0 FMFlag=      100000 FMFlg1=        2001
         NFxFlg=           0 DoJE=T BraDBF=F KetDBF=T FulRan=T
         wScrn=  0.000000 ICntrl=       500 IOpCl=  0 I1Cent=   200000004 NGrid=           0
         NMat0=    1 NMatS0=      1 NMatT0=    0 NMatD0=    1 NMtDS0=    0 NMtDT0=    0
 Petite list used in FoFCou.
 Requested convergence on RMS density matrix=1.00D-08 within 128 cycles.
 Requested convergence on MAX density matrix=1.00D-06.
 Requested convergence on             energy=1.00D-06.
 No special actions if energy rises.
 CoulSu:  requested number of processors reduced to:  10 ShMem   1 Linda.
 Inv3:  Mode=1 IEnd=    65230707.
 Iteration    1 A*A^-1 deviation from unit magnitude is 3.33D-15 for   1011.
 Iteration    1 A*A^-1 deviation from orthogonality  is 2.65D-15 for   4324   2892.
 Iteration    1 A^-1*A deviation from unit magnitude is 3.33D-15 for   1011.
 Iteration    1 A^-1*A deviation from orthogonality  is 8.10D-15 for   3471   3455.
 CoulSu:  requested number of processors reduced to:  10 ShMem   1 Linda.
 CoulSu:  requested number of processors reduced to:  10 ShMem   1 Linda.
 Error on total polarization charges =  0.02398
 SCF Done:  E(RwB97XD) =  -6140.22973801     A.U. after   16 cycles
            NFock= 16  Conv=0.56D-08     -V/T= 2.0038
 PrsmSu:  requested number of processors reduced to:  11 ShMem   1 Linda.
 D1PCM: PCM CHGder 1st derivatives, ID1Alg=3 FixD1E=F DoIter=F DoCFld=F I1PDM=0.
 CoulSu:  requested number of processors reduced to:  10 ShMem   1 Linda.
 CoulSu:  requested number of processors reduced to:  10 ShMem   1 Linda.
 Calling FoFJK, ICntrl=      2127 FMM=T ISym2X=0 I1Cent= 0 IOpClX= 0 NMat=1 NMatS=1 NMatT=0.
 ***** Axes restored to original set *****
 -------------------------------------------------------------------
 Center     Atomic                   Forces (Hartrees/Bohr)
 Number     Number              X              Y              Z
 -------------------------------------------------------------------
      1       25          -0.000157109   -0.000099908    0.000365868
      2        6           0.000005854   -0.000046616   -0.000083542
      3        8          -0.000022721   -0.000076688    0.000027413
      4        6           0.000050333    0.000108649   -0.000053971
      5        8           0.000008046   -0.000147731    0.000023604
      6        6           0.000032891   -0.000008722   -0.000141847
      7        7           0.000049124    0.000055667   -0.000104722
      8        6          -0.000067846   -0.000013961    0.000045155
      9        6           0.000060797    0.000011050   -0.000087869
     10        6          -0.000154824    0.000025458    0.000158764
     11        1           0.000001397    0.000010768   -0.000008555
     12        1          -0.000006893    0.000015485    0.000035918
     13        7          -0.000000547   -0.000085611   -0.000087390
     14        6           0.000122388   -0.000001237    0.000015568
     15        6          -0.000050318   -0.000075192   -0.000131687
     16        6          -0.000189187   -0.000082087    0.000026189
     17        6          -0.000013955    0.000065311    0.000045079
     18        6           0.000375244   -0.000068431   -0.000160008
     19        1          -0.000010392    0.000014985   -0.000011843
     20        1          -0.000155986    0.000390151    0.000039001
     21        7           0.000218900   -0.000142265    0.000076083
     22        6           0.000069957   -0.000167708    0.000161908
     23        6          -0.000027766   -0.000075397   -0.000028584
     24        1          -0.000028240    0.000140043   -0.000132250
     25        6           0.000076412   -0.000050011    0.000016812
     26        1           0.000025971   -0.000011267   -0.000017659
     27        6          -0.000118380    0.000073332    0.000010016
     28        1          -0.000013622    0.000029188   -0.000031412
     29        1          -0.000008208    0.000006492   -0.000003659
     30        8           0.000009814    0.000014032    0.000019075
     31       16           0.000005940   -0.000022900   -0.000122107
     32       16          -0.000021169    0.000020479   -0.000014006
     33        6           0.000022189   -0.000031576    0.000033413
     34        6           0.000014459   -0.000034758    0.000117507
     35        6           0.000001725    0.000013913   -0.000011190
     36        6           0.000011045   -0.000014916   -0.000005917
     37        6           0.000014856   -0.000006267    0.000008535
     38        6           0.000007514   -0.000010458   -0.000015694
     39        6          -0.000017055   -0.000000685   -0.000053653
     40        1           0.000004104   -0.000008523   -0.000003681
     41        1           0.000000524    0.000000194   -0.000001667
     42        1          -0.000012746    0.000004897   -0.000001490
     43        6           0.000001736    0.000038529   -0.000022241
     44        6          -0.000003753   -0.000030103    0.000021615
     45        6           0.000015835    0.000015812    0.000007026
     46        6          -0.000016245   -0.000004129   -0.000011292
     47        6           0.000008585    0.000018200   -0.000017745
     48        6           0.000026714   -0.000061334    0.000012432
     49        1          -0.000000514    0.000005055    0.000005788
     50        1          -0.000001908    0.000000467   -0.000000932
     51        1           0.000004982    0.000000344    0.000020268
     52        6           0.000058070    0.000053704    0.000087099
     53        1           0.000019950   -0.000028033   -0.000020276
     54        6          -0.000042567   -0.000058049    0.000016469
     55        1           0.000034190    0.000021698    0.000101191
     56        1           0.000006286   -0.000008104   -0.000053648
     57        6          -0.000001950   -0.000015727   -0.000006749
     58        6          -0.000043228   -0.000023381    0.000060951
     59        1          -0.000003362   -0.000021903    0.000002069
     60        1          -0.000003335   -0.000010630   -0.000001936
     61       35          -0.000172008    0.000390403   -0.000111589
 -------------------------------------------------------------------
 Cartesian Forces:  Max     0.000390403 RMS     0.000083778

 GradGradGradGradGradGradGradGradGradGradGradGradGradGradGradGradGradGrad
 Berny optimization.
 FormGI is forming the generalized inverse of G from B-inverse, IUseBI=4.
 Internal  Forces:  Max     0.000429378 RMS     0.000068959
 Search for a saddle point.
 Step number  91 out of a maximum of  366
 All quantities printed in internal units (Hartrees-Bohrs-Radians)
 Update second derivatives using D2CorX and points   83   84   85   86   87
                                                     88   89   90   91
 ITU=  0  0  0  0  0  0  0  0  0  0  0  0  0  0  0  0  0  0  0  0
 ITU=  0  0  0  0  0  0  0  0  0  0  0  0  0  0  0  0  0  0  0  0
 ITU=  0  0  0  0  0  0  0  0  0  0  0  0  0  0  0  0  0  0  0  0
 ITU=  0  0  0  0  0  0  0  0  0  0  0  0  0  0  0  0  0  0  0  0
 ITU=  0  0  0  0  0  0  0  0  0  0  0
     Eigenvalues ---   -0.01155   0.00202   0.00394   0.00428   0.00908
     Eigenvalues ---    0.01072   0.01226   0.01298   0.01442   0.01544
     Eigenvalues ---    0.01598   0.01691   0.01728   0.01777   0.01811
     Eigenvalues ---    0.01868   0.01898   0.01905   0.01950   0.01957
     Eigenvalues ---    0.02011   0.02054   0.02132   0.02141   0.02143
     Eigenvalues ---    0.02149   0.02169   0.02169   0.02170   0.02175
     Eigenvalues ---    0.02177   0.02178   0.02179   0.02182   0.02198
     Eigenvalues ---    0.02200   0.02205   0.02219   0.02228   0.02273
     Eigenvalues ---    0.02313   0.02322   0.02359   0.02420   0.02531
     Eigenvalues ---    0.02820   0.03052   0.03350   0.03448   0.03504
     Eigenvalues ---    0.03804   0.04231   0.04464   0.04961   0.05151
     Eigenvalues ---    0.05473   0.05889   0.06421   0.06687   0.07512
     Eigenvalues ---    0.07585   0.07984   0.08500   0.09016   0.09175
     Eigenvalues ---    0.09791   0.10271   0.10436   0.10863   0.12257
     Eigenvalues ---    0.13341   0.13683   0.14477   0.15993   0.15995
     Eigenvalues ---    0.15997   0.15998   0.15998   0.15999   0.16000
     Eigenvalues ---    0.16000   0.16000   0.16001   0.16002   0.16004
     Eigenvalues ---    0.16007   0.16008   0.16015   0.16036   0.16084
     Eigenvalues ---    0.16708   0.17212   0.18090   0.19861   0.21332
     Eigenvalues ---    0.21424   0.21527   0.21988   0.22002   0.22093
     Eigenvalues ---    0.22110   0.22117   0.22232   0.22413   0.22859
     Eigenvalues ---    0.23248   0.23386   0.23478   0.23664   0.23726
     Eigenvalues ---    0.23769   0.23904   0.24777   0.24904   0.25202
     Eigenvalues ---    0.25301   0.26641   0.26786   0.27658   0.28100
     Eigenvalues ---    0.32551   0.32935   0.33484   0.34001   0.34449
     Eigenvalues ---    0.34450   0.34454   0.34463   0.34468   0.34482
     Eigenvalues ---    0.34496   0.34498   0.34533   0.34538   0.34539
     Eigenvalues ---    0.34540   0.34573   0.34583   0.34658   0.34849
     Eigenvalues ---    0.34919   0.35264   0.38035   0.38385   0.39865
     Eigenvalues ---    0.40147   0.40697   0.41481   0.41685   0.41796
     Eigenvalues ---    0.42114   0.43265   0.43748   0.44235   0.44917
     Eigenvalues ---    0.45114   0.45895   0.45939   0.45949   0.45961
     Eigenvalues ---    0.46153   0.46289   0.46402   0.46515   0.46887
     Eigenvalues ---    0.46894   0.46986   0.47117   0.47258   0.53983
     Eigenvalues ---    0.54651   0.56007   0.57054   1.25103   1.31836
     Eigenvalues ---    1.35610   1.357071000.000001000.000001000.00000
     Eigenvalues --- 1000.000001000.000001000.000001000.000001000.00000
     Eigenvalues --- 1000.000001000.000001000.000001000.000001000.00000
     Eigenvalues --- 1000.000001000.000001000.000001000.000001000.00000
     Eigenvalues --- 1000.000001000.000001000.000001000.000001000.00000
     Eigenvalues --- 1000.000001000.000001000.000001000.000001000.00000
     Eigenvalues --- 1000.000001000.000001000.000001000.000001000.00000
     Eigenvalues --- 1000.000001000.000001000.000001000.000001000.00000
[...]
   D32        3.05684   0.00001   0.00000  -0.00469  -0.00469   3.05215
   D33       -3.09085  -0.00026   0.00000   0.00272   0.00271  -3.08814
   D34        0.06304  -0.00026   0.00000   0.00101   0.00102   0.06406
   D35        0.00869  -0.00008   0.00000   0.00367   0.00367   0.01236
   D36       -3.12060  -0.00009   0.00000   0.00197   0.00197  -3.11863
   D37       -0.02153   0.00000   0.00000   0.00055   0.00055  -0.02098
   D38        3.12938   0.00000   0.00000  -0.00212  -0.00212   3.12726
   D39        3.10572  -0.00001   0.00000  -0.00180  -0.00181   3.10391
   D40       -0.02656  -0.00001   0.00000  -0.00448  -0.00448  -0.03104
   D41        0.03418   0.00008   0.00000   0.00176   0.00176   0.03595
   D42       -3.11974   0.00008   0.00000   0.00341   0.00342  -3.11632
   D43       -3.12130   0.00006   0.00000  -0.00054  -0.00054  -3.12184
   D44        0.00796   0.00007   0.00000   0.00111   0.00111   0.00908
   D45       -0.02060  -0.00004   0.00000   0.00186   0.00186  -0.01874
   D46        3.13273  -0.00007   0.00000   0.00494   0.00493   3.13766
   D47        3.13026  -0.00004   0.00000  -0.00080  -0.00080   3.12946
   D48        0.00040  -0.00007   0.00000   0.00228   0.00227   0.00268
   D49        0.06717   0.00003   0.00000   0.00380   0.00380   0.07097
   D50       -3.08580   0.00006   0.00000   0.00082   0.00083  -3.08497
   D51       -3.05034   0.00004   0.00000   0.00190   0.00190  -3.04844
   D52        0.07988   0.00006   0.00000  -0.00108  -0.00108   0.07880
   D53       -3.11339   0.00025   0.00000   0.00776   0.00764  -3.10575
   D54        0.02995   0.00021   0.00000   0.00645   0.00638   0.03633
   D55        0.01428  -0.00001   0.00000   0.00023   0.00018   0.01446
   D56       -3.12557  -0.00006   0.00000  -0.00107  -0.00108  -3.12665
   D57       -0.03995  -0.00042   0.00000  -0.00741  -0.00726  -0.04721
   D58        3.10956  -0.00032   0.00000  -0.00705  -0.00690   3.10265
   D59        3.11553  -0.00015   0.00000   0.00010   0.00021   3.11574
   D60       -0.01815  -0.00006   0.00000   0.00047   0.00056  -0.01759
   D61        3.13802   0.00001   0.00000  -0.00061  -0.00060   3.13743
   D62       -0.00082   0.00006   0.00000  -0.00035  -0.00035  -0.00117
   D63       -0.00533   0.00005   0.00000   0.00070   0.00068  -0.00465
   D64        3.13901   0.00011   0.00000   0.00097   0.00092   3.13993
   D65       -0.00871  -0.00004   0.00000  -0.00024  -0.00021  -0.00892
   D66        3.13431  -0.00002   0.00000   0.00009   0.00010   3.13441
   D67        3.13564   0.00002   0.00000   0.00003   0.00004   3.13568
   D68       -0.00453   0.00003   0.00000   0.00036   0.00034  -0.00418
   D69        0.14699   0.00014   0.00000   0.01028   0.01038   0.15738
   D70       -0.01661  -0.00045   0.00000  -0.00314  -0.00287  -0.01948
   D71       -3.00265   0.00005   0.00000   0.00990   0.01003  -2.99262
   D72        3.11693  -0.00054   0.00000  -0.00351  -0.00322   3.11371
   D73        0.00855   0.00008   0.00000  -0.00106  -0.00112   0.00743
   D74       -3.13660  -0.00002   0.00000  -0.00113  -0.00115  -3.13775
   D75       -3.12499   0.00018   0.00000  -0.00068  -0.00076  -3.12576
   D76        0.01305   0.00007   0.00000  -0.00076  -0.00080   0.01225
   D77        1.66506  -0.00009   0.00000   0.00914   0.00931   1.67437
   D78        3.09826  -0.00005   0.00000   0.01419   0.01423   3.11250
   D79       -0.03248   0.00005   0.00000   0.01376   0.01379  -0.01869
   D80       -0.00986  -0.00006   0.00000   0.00173   0.00173  -0.00813
   D81       -3.14060   0.00003   0.00000   0.00130   0.00128  -3.13932
   D82       -3.04092  -0.00016   0.00000  -0.01376  -0.01374  -3.05467
   D83        0.11505   0.00003   0.00000  -0.01260  -0.01258   0.10247
   D84        0.06566  -0.00015   0.00000  -0.00053  -0.00054   0.06512
   D85       -3.06155   0.00004   0.00000   0.00063   0.00062  -3.06093
   D86       -3.13844  -0.00004   0.00000   0.00135   0.00136  -3.13708
   D87        0.01581  -0.00009   0.00000   0.00103   0.00104   0.01686
   D88        0.02568  -0.00006   0.00000   0.00059   0.00059   0.02627
   D89       -3.10325  -0.00011   0.00000   0.00028   0.00027  -3.10298
   D90       -1.86473   0.00016   0.00000  -0.01615  -0.01612  -1.88085
   D91        1.25427   0.00018   0.00000  -0.01540  -0.01534   1.23893
   D92       -0.03480   0.00017   0.00000  -0.00176  -0.00175  -0.03656
   D93        3.09560   0.00007   0.00000  -0.00132  -0.00130   3.09430
   D94        3.12888   0.00015   0.00000  -0.00250  -0.00251   3.12638
   D95       -0.02390   0.00005   0.00000  -0.00205  -0.00206  -0.02595
   D96       -3.12741  -0.00026   0.00000  -0.00509  -0.00510  -3.13251
   D97        0.02445  -0.00014   0.00000   0.00047   0.00046   0.02491
   D98        0.00158  -0.00021   0.00000  -0.00478  -0.00478  -0.00321
   D99       -3.12975  -0.00009   0.00000   0.00078   0.00078  -3.12897
   D100      -2.41456  -0.00003   0.00000   0.00186   0.00186  -2.41270
   D101       0.80909   0.00001   0.00000   0.00151   0.00151   0.81060
   D102      -0.80808  -0.00002   0.00000   0.00140   0.00140  -0.80667
   D103       2.41371  -0.00010   0.00000  -0.00114  -0.00115   2.41256
   D104       2.43867   0.00002   0.00000  -0.00250  -0.00250   2.43617
   D105      -0.75686   0.00003   0.00000  -0.00081  -0.00081  -0.75767
   D106       0.75758  -0.00001   0.00000   0.00379   0.00380   0.76138
   D107      -2.43778   0.00001   0.00000   0.00469   0.00469  -2.43308
   D108       1.03796   0.00022   0.00000  -0.00313  -0.00312   1.03484
   D109      -2.09020   0.00021   0.00000  -0.00613  -0.00612  -2.09631
   D110      -2.09166   0.00020   0.00000   0.00001   0.00001  -2.09165
   D111       1.06336   0.00019   0.00000  -0.00299  -0.00298   1.06038
   D112       3.11644  -0.00002   0.00000  -0.00208  -0.00207   3.11436
   D113      -0.00037  -0.00000   0.00000  -0.00216  -0.00216  -0.00253
   D114      -0.03825  -0.00001   0.00000   0.00086   0.00085  -0.03739
   D115       3.12813   0.00001   0.00000   0.00077   0.00077   3.12890
   D116       0.10707   0.00006   0.00000   0.00226   0.00226   0.10933
   D117      -3.11680   0.00001   0.00000   0.00260   0.00260  -3.11420
   D118      -3.02116   0.00005   0.00000  -0.00071  -0.00071  -3.02187
   D119       0.03815  -0.00000   0.00000  -0.00037  -0.00037   0.03778
   D120       0.00089   0.00001   0.00000  -0.00092  -0.00092  -0.00003
   D121      -3.12436   0.00001   0.00000  -0.00008  -0.00008  -3.12444
   D122       3.11745  -0.00001   0.00000  -0.00084  -0.00084   3.11662
   D123      -0.00780  -0.00000   0.00000   0.00000   0.00000  -0.00779
   D124       0.03668   0.00001   0.00000   0.00047   0.00047   0.03715
   D125      -3.11845   0.00000   0.00000   0.00126   0.00126  -3.11718
   D126      -3.12123   0.00000   0.00000  -0.00037  -0.00037  -3.12160
   D127       0.00683  -0.00000   0.00000   0.00042   0.00042   0.00725
   D128       3.05142  -0.00001   0.00000   0.00168   0.00168   3.05311
   D129      -0.03646  -0.00002   0.00000   0.00002   0.00002  -0.03644
   D130      -0.07675  -0.00001   0.00000   0.00089   0.00089  -0.07586
   D131       3.11855  -0.00001   0.00000  -0.00077  -0.00077   3.11778
   D132      -0.02793  -0.00005   0.00000  -0.00132  -0.00133  -0.02926
   D133      -3.08800   0.00001   0.00000  -0.00177  -0.00177  -3.08977
   D134       3.05886  -0.00004   0.00000   0.00037   0.00037   3.05923
   D135      -0.00121   0.00001   0.00000  -0.00007  -0.00007  -0.00128
   D136       0.02704  -0.00002   0.00000  -0.00395  -0.00395   0.02309
   D137      -3.05985  -0.00005   0.00000  -0.00484  -0.00485  -3.06469
   D138       3.08921   0.00004   0.00000  -0.00135  -0.00135   3.08786
   D139       0.00232   0.00002   0.00000  -0.00224  -0.00224   0.00008
   D140       3.02254   0.00008   0.00000   0.00492   0.00493   3.02747
   D141      -0.10399  -0.00004   0.00000   0.00177   0.00177  -0.10221
   D142      -0.03864   0.00000   0.00000   0.00238   0.00238  -0.03626
   D143       3.11801  -0.00011   0.00000  -0.00076  -0.00077   3.11724
   D144      -3.05252  -0.00003   0.00000  -0.00014  -0.00014  -3.05266
   D145       0.07647  -0.00002   0.00000   0.00043   0.00042   0.07690
   D146       0.03555  -0.00001   0.00000   0.00073   0.00073   0.03628
   D147      -3.11863   0.00000   0.00000   0.00129   0.00130  -3.11734
   D148      -0.03657  -0.00001   0.00000   0.00064   0.00064  -0.03593
   D149       3.12184   0.00002   0.00000   0.00103   0.00103   3.12287
   D150       3.11773  -0.00002   0.00000   0.00007   0.00007   3.11780
   D151      -0.00704  -0.00000   0.00000   0.00046   0.00046  -0.00658
   D152      -0.00040   0.00003   0.00000  -0.00048  -0.00048  -0.00087
   D153      -3.11705   0.00004   0.00000   0.00068   0.00068  -3.11637
   D154       3.12435   0.00001   0.00000  -0.00086  -0.00086   3.12349
   D155       0.00770   0.00002   0.00000   0.00029   0.00029   0.00799
   D156       0.03797  -0.00003   0.00000  -0.00103  -0.00103   0.03694
   D157      -3.11832   0.00009   0.00000   0.00207   0.00207  -3.11625
   D158      -3.12833  -0.00004   0.00000  -0.00218  -0.00218  -3.13050
   D159      -0.00143   0.00007   0.00000   0.00092   0.00092  -0.00051
   D160       2.09641   0.00017   0.00000   0.01508   0.01510   2.11151
   D161      -1.05568   0.00005   0.00000   0.00940   0.00941  -1.04627
   D162      -1.03007   0.00006   0.00000   0.01191   0.01193  -1.01815
   D163       2.10102  -0.00006   0.00000   0.00623   0.00624   2.10726
   D164      -0.07329   0.00026   0.00000  -0.00055  -0.00053  -0.07382
   D165       3.05377   0.00007   0.00000  -0.00171  -0.00171   3.05206
   D166       3.07829   0.00037   0.00000   0.00484   0.00486   3.08316
   D167      -0.07784   0.00018   0.00000   0.00368   0.00369  -0.07415
   D168       0.00480  -0.00004   0.00000   0.00095   0.00095   0.00575
   D169      -3.13322   0.00007   0.00000   0.00102   0.00099  -3.13224
   D170      -3.13822  -0.00005   0.00000   0.00062   0.00064  -3.13757
   D171       0.00694   0.00005   0.00000   0.00070   0.00068   0.00762
         Item               Value     Threshold  Converged?
 Maximum Force            0.001091     0.000450     NO 
 RMS     Force            0.000206     0.000300     YES
 Maximum Displacement     0.261558     0.001800     NO 
 RMS     Displacement     0.028910     0.001200     NO 
 Predicted change in Energy= 6.551144D-05
 GradGradGradGradGradGradGradGradGradGradGradGradGradGradGradGradGradGrad

 Stoichiometry    C32H19BrMnN3O3S2
 Framework group  C1[X(C32H19BrMnN3O3S2)]
 Deg. of freedom   177
 Full point group                 C1      NOp   1
 Largest Abelian subgroup         C1      NOp   1
 Largest concise Abelian subgroup C1      NOp   1
                         Standard orientation:                         
 ---------------------------------------------------------------------
 Center     Atomic      Atomic             Coordinates (Angstroms)
 Number     Number       Type             X           Y           Z
 ---------------------------------------------------------------------
      1         25           0        2.246126   -1.534715   -1.044596
      2          6           0        3.005090   -3.215339   -0.983996
      3          8           0        3.472269   -4.255171   -0.979809
      4          6           0        3.743283   -0.899143   -1.931892
      5          8           0        4.644598   -0.554023   -2.534893
      6          6           0        1.481137   -1.920369   -2.624896
      7          7           0        1.526688    0.439544   -0.918037
      8          6           0        1.947192    2.690659   -0.215990
      9          6           0        0.643786    3.059835   -0.533858
     10          6           0        0.294820    0.817525   -1.271998
     11          1           0        2.664476    3.404329    0.190471
     12          1           0        0.293502    4.080478   -0.365382
     13          7           0        2.624005   -0.637731    2.019485
     14          6           0        1.706630   -0.103659    2.482858
     15          6           0        0.532504    0.545478    2.997584
     16          6           0       -0.479923   -0.217892    3.596937
     17          6           0       -1.631845    0.413128    4.053755
     18          6           0        0.397727    1.935403    2.872994
     19          1           0       -0.358671   -1.296347    3.701289
     20          1           0        1.205873    2.513888    2.426315
     21          7           0        0.628312   -2.286456    0.113892
     22          6           0       -0.111818   -3.495253    2.046409
     23          6           0       -1.441436   -3.208907    1.745523
     24          1           0        0.157164   -4.081200    2.925345
     25          6           0        2.345611    1.374978   -0.400803
     26          1           0        3.364671    1.082400   -0.127287
     27          6           0        0.888913   -3.002087    1.223531
     28          1           0        1.937468   -3.177715    1.466118
     29          1           0       -2.424368   -0.176660    4.517342
     30          8           0        0.963185   -2.151175   -3.617949
     31         16           0       -2.421920    0.579581    0.511022
     32         16           0       -5.397715    1.217491   -0.438149
     33          6           0       -0.215486    2.098550   -1.066534
     34          6           0       -1.626214    2.397463   -1.432235
     35          6           0       -1.895552    3.386936   -2.383983
     36          6           0       -3.202358    3.668948   -2.772385
     37          6           0       -4.263730    2.963764   -2.213494
     38          6           0       -4.017077    2.003517   -1.229486
     39          6           0       -2.703843    1.715362   -0.833173
     40          1           0       -1.061745    3.924542   -2.840125
     41          1           0       -3.394534    4.432685   -3.527758
     42          1           0       -5.289672    3.162950   -2.529133
     43          6           0       -3.520184   -0.753460    0.071336
     44          6           0       -4.831620   -0.461315   -0.329930
     45          6           0       -5.737820   -1.491904   -0.590806
     46          6           0       -5.350470   -2.815909   -0.410059
     47          6           0       -4.050274   -3.113521   -0.011711
     48          6           0       -3.115553   -2.096415    0.211714
     49          1           0       -6.748828   -1.250254   -0.924413
     50          1           0       -6.062554   -3.621437   -0.596551
     51          1           0       -3.740345   -4.153830    0.107055
     52          6           0       -1.726984   -2.459613    0.605106
     53          1           0       -2.248009   -3.553938    2.395897
     54          6           0       -0.652253   -2.062761   -0.191755
     55          1           0       -0.860649   -1.551432   -1.128217
     56          1           0       -0.333386    0.080231   -1.767370
     57          6           0       -1.774365    1.794489    3.916211
     58          6           0       -0.761004    2.554089    3.330579
     59          1           0       -0.871721    3.635251    3.232361
     60          1           0       -2.683641    2.283870    4.270489
     61         35           0        5.887463    1.838197    0.449229
 ---------------------------------------------------------------------
 Rotational constants (GHZ):           0.0973761           0.0510291           0.0465583
 Basis read from rwf:  (5D, 7F)
 There are   800 symmetry adapted cartesian basis functions of A   symmetry.
 There are   749 symmetry adapted basis functions of A   symmetry.
   749 basis functions,  1349 primitive gaussians,   800 cartesian basis functions
   174 alpha electrons      174 beta electrons
       nuclear repulsion energy      6623.9830222678 Hartrees.
 NAtoms=   61 NActive=   61 NUniq=   61 SFac= 1.00D+00 NAtFMM=   60 NAOKFM=T Big=T
 Integral buffers will be    131072 words long.
 Raffenetti 2 integral format.
 Two-electron integral symmetry is turned on.
 Nuclear repulsion after empirical dispersion term =     6623.9134582867 Hartrees.
 ------------------------------------------------------------------------------
 Polarizable Continuum Model (PCM)
 =================================
 Model                : PCM.
 Atomic radii         : UFF (Universal Force Field).
 Polarization charges : Total charges.
 Charge compensation  : None.
 Solution method      : On-the-fly selection.
 Cavity type          : Scaled VdW (van der Waals Surface) (Alpha=1.100).
 Cavity algorithm     : GePol (No added spheres)
                        Default sphere list used, NSphG=   61.
                        Lebedev-Laikov grids with approx.  5.0 points / Ang**2.
                        Smoothing algorithm: York/Karplus (Gamma=1.0000).
                        Polarization charges: spherical gaussians, with
                                              point-specific exponents (IZeta= 3).
                        Self-potential: point-specific (ISelfS= 7).
                        Self-field    : sphere-specific E.n sum rule (ISelfD= 2).
 1st derivatives      : Analytical E(r).r(x)/FMM algorithm (CHGder, D1EAlg=3).
                        Cavity 1st derivative terms included.
 Solvent              : TetraHydroFuran, Eps=   7.425700 Eps(inf)=   1.974025
 ------------------------------------------------------------------------------
 One-electron integrals computed using PRISM.
 PrsmSu:  requested number of processors reduced to:  11 ShMem   1 Linda.
 NBasis=   749 RedAO= T EigKep=  2.25D-04  NBF=   749
 NBsUse=   749 1.00D-06 EigRej= -1.00D+00 NBFU=   749
 Initial guess from the checkpoint file:  "checkpoint.chk"
 B after Tr=    -0.000000   -0.000000    0.000000
         Rot=    0.999859   -0.016453   -0.002552   -0.001969 Ang=  -1.92 deg.
 ExpMin= 3.93D-02 ExpMax= 2.77D+05 ExpMxC= 1.70D+04 IAcc=3 IRadAn=         5 AccDes= 0.00D+00
 Harris functional with IExCor= 4639 and IRadAn=       5 diagonalized for initial guess.
 HarFok:  IExCor= 4639 AccDes= 0.00D+00 IRadAn=         5 IDoV= 1 UseB2=F ITyADJ=14
 ICtDFT=  3500011 ScaDFX=  1.000000  1.000000  1.000000  1.000000
 FoFCou: FMM=F IPFlag=           0 FMFlag=      100000 FMFlg1=        2001
         NFxFlg=           0 DoJE=T BraDBF=F KetDBF=T FulRan=T
         wScrn=  0.000000 ICntrl=       500 IOpCl=  0 I1Cent=   200000004 NGrid=           0
         NMat0=    1 NMatS0=      1 NMatT0=    0 NMatD0=    1 NMtDS0=    0 NMtDT0=    0
 Petite list used in FoFCou.
 Requested convergence on RMS density matrix=1.00D-08 within 128 cycles.
 Requested convergence on MAX density matrix=1.00D-06.
 Requested convergence on             energy=1.00D-06.
 No special actions if energy rises.
 CoulSu:  requested number of processors reduced to:   9 ShMem   1 Linda.
 Inv3:  Mode=1 IEnd=    68545200.
 Iteration    1 A*A^-1 deviation from unit magnitude is 3.55D-15 for   2760.
 Iteration    1 A*A^-1 deviation from orthogonality  is 4.22D-15 for   2760   1990.
 Iteration    1 A^-1*A deviation from unit magnitude is 3.33D-15 for   4211.
 Iteration    1 A^-1*A deviation from orthogonality  is 2.44D-15 for   2565    964.
 CoulSu:  requested number of processors reduced to:   9 ShMem   1 Linda.
 CoulSu:  requested number of processors reduced to:   9 ShMem   1 Linda.
 Error on total polarization charges =  0.02663
 SCF Done:  E(RwB97XD) =  -6140.23069287     A.U. after   16 cycles
            NFock= 16  Conv=0.57D-08     -V/T= 2.0038
 PrsmSu:  requested number of processors reduced to:  11 ShMem   1 Linda.
 D1PCM: PCM CHGder 1st derivatives, ID1Alg=3 FixD1E=F DoIter=F DoCFld=F I1PDM=0.
 CoulSu:  requested number of processors reduced to:  10 ShMem   1 Linda.
 CoulSu:  requested number of processors reduced to:  10 ShMem   1 Linda.
 Calling FoFJK, ICntrl=      2127 FMM=T ISym2X=0 I1Cent= 0 IOpClX= 0 NMat=1 NMatS=1 NMatT=0.
