 Entering Gaussian System, Link 0=g16
 Initial command:
 /home1/apps/gaussian/16rA.03/g16/l1.exe "/tmp/Gau-143721.inp" -scrdir="/tmp/"
 Entering Link 1 = /home1/apps/gaussian/16rA.03/g16/l1.exe PID=    143722.
  
 Copyright (c) 1988,1990,1992,1993,1995,1998,2003,2009,2016,
            Gaussian, Inc.  All Rights Reserved.
  
 This is part of the Gaussian(R) 16 program.  It is based on
 the Gaussian(R) 09 system (copyright 2009, Gaussian, Inc.),
 the Gaussian(R) 03 system (copyright 2003, Gaussian, Inc.),
 the Gaussian(R) 98 system (copyright 1998, Gaussian, Inc.),
 the Gaussian(R) 94 system (copyright 1995, Gaussian, Inc.),
 the Gaussian 92(TM) system (copyright 1992, Gaussian, Inc.),
 the Gaussian 90(TM) system (copyright 1990, Gaussian, Inc.),
 the Gaussian 88(TM) system (copyright 1988, Gaussian, Inc.),
 the Gaussian 86(TM) system (copyright 1986, Carnegie Mellon
 University), and the Gaussian 82(TM) system (copyright 1983,
 Carnegie Mellon University). Gaussian is a federally registered
 trademark of Gaussian, Inc.
  
 This software contains proprietary and confidential information,
 including trade secrets, belonging to Gaussian, Inc.
  
 This software is provided under written license and may be
 used, copied, transmitted, or stored only in accord with that
 written license.
  
 The following legend is applicable only to US Government
 contracts under FAR:
  
                    RESTRICTED RIGHTS LEGEND
  
 Use, reproduction and disclosure by the US Government is
 subject to restrictions as set forth in subparagraphs (a)
 and (c) of the Commercial Computer Software - Restricted
 Rights clause in FAR 52.227-19.
  
 Gaussian, Inc.
 340 Quinnipiac St., Bldg. 40, Wallingford CT 06492
  
  
 ---------------------------------------------------------------
 Warning -- This program may not be used in any manner that
 competes with the business of Gaussian, Inc. or will provide
 assistance to any competitor of Gaussian, Inc.  The licensee
 of this program is prohibited from giving any competitor of
 Gaussian, Inc. access to this program.  By using this program,
 the user acknowledges that Gaussian, Inc. is engaged in the
 business of creating and licensing software in the field of
 computational chemistry and represents and warrants to the
 licensee that it is not a competitor of Gaussian, Inc. and that
 it will not use this program in any manner prohibited above.
 ---------------------------------------------------------------
  

 Cite this work as:
 Gaussian 16, Revision A.03,
 M. J. Frisch, G. W. Trucks, H. B. Schlegel, G. E. Scuseria, 
 M. A. Robb, J. R. Cheeseman, G. Scalmani, V. Barone, 
 G. A. Petersson, H. Nakatsuji, X. Li, M. Caricato, A. V. Marenich, 
 J. Bloino, B. G. Janesko, R. Gomperts, B. Mennucci, H. P. Hratchian, 
 J. V. Ortiz, A. F. Izmaylov, J. L. Sonnenberg, D. Williams-Young, 
 F. Ding, F. Lipparini, F. Egidi, J. Goings, B. Peng, A. Petrone, 
 T. Henderson, D. Ranasinghe, V. G. Zakrzewski, J. Gao, N. Rega, 
 G. Zheng, W. Liang, M. Hada, M. Ehara, K. Toyota, R. Fukuda, 
 J. Hasegawa, M. Ishida, T. Nakajima, Y. Honda, O. Kitao, H. Nakai, 
 T. Vreven, K. Throssell, J. A. Montgomery, Jr., J. E. Peralta, 
 F. Ogliaro, M. J. Bearpark, J. J. Heyd, E. N. Brothers, K. N. Kudin, 
 V. N. Staroverov, T. A. Keith, R. Kobayashi, J. Normand, 
 K. Raghavachari, A. P. Rendell, J. C. Burant, S. S. Iyengar, 
 J. Tomasi, M. Cossi, J. M. Millam, M. Klene, C. Adamo, R. Cammi, 
 J. W. Ochterski, R. L. Martin, K. Morokuma, O. Farkas, 
 J. B. Foresman, and D. J. Fox, Gaussian, Inc., Wallingford CT, 2016.
 
 ******************************************
 Gaussian 16:  ES64L-G16RevA.03 25-Dec-2016
                 6-Dec-2022 
 ******************************************
 %Chk=checkpoint.chk
 %NProcShared=12
 Will use up to   12 processors via shared memory.
 ------------------------------------------------------
 # wB97XD Gen Opt=(QST3) SCRF=(Solvent=TetraHydroFuran)
 ------------------------------------------------------
 1/5=1,18=20,26=3,27=203,38=1/1,3;
 2/9=110,12=2,17=6,18=5,40=1/2;
 3/5=7,11=2,25=1,30=1,70=2201,71=1,72=20,74=-58/1,2,3;
 4//1;
 5/5=2,38=5,53=20/2;
 6/7=2,8=2,9=2,10=2,28=1/1;
 7//1,2,3,16;
 1/5=1,18=20,26=3,27=203/3(2);
 2/9=110/2;
 99//99;
 2/9=110/2;
 3/5=7,6=1,11=2,25=1,30=1,70=2205,71=1,72=20,74=-58,82=7/1,2,3;
 4/5=5,16=3,69=1/1;
 5/5=2,38=5,53=20/2;
 7//1,2,3,16;
 1/5=1,18=20,26=3,27=203/3(-5);
 2/9=110/2;
 6/7=2,8=2,9=2,10=2,19=2,28=1/1;
 99/9=1/99;
 ----------------------------
 Mn Transition State Reactant
 ----------------------------
 Symbolic Z-matrix:
 Charge =  0 Multiplicity = 1
 Mn                    8.61564   3.04629   14.7607 
 C                     10.21396   3.6436    15.4293 
 O                     11.22487   3.93738   15.86875 
 C                     8.9574    3.75282   13.10526 
 O                     9.15418   4.13703   12.04907 
 C                     9.43671   1.50443   14.25828 
 N                     6.65512   2.40028   14.02027 
 C                     4.51204   2.98077   13.11518 
 C                     4.07227   1.66628   13.24514 
 C                     6.24194   1.1325    14.09169 
 H                     3.86051   3.75926   12.71488 
 H                     3.05462   1.38477   12.96261 
 N                     7.65962   4.72516   15.35325 
 C                     7.13184   5.68196   15.7197 
 C                     6.43175   6.83046   16.22017 
 C                     5.21497   6.63874   16.89319 
 C                     4.54023   7.7451    17.39686 
 C                     6.97479   8.11122   16.04617 
 H                     4.81051   5.63137   17.01619 
 H                     7.93008   8.21543   15.51791 
 N                     8.13012   2.28636   16.76442 
 C                     7.75486   2.72519   19.09142 
 C                     7.32647   1.4164    19.29552 
 H                     7.78496   3.4459    19.91028 
 C                     5.79773   3.30674   13.52061 
 H                     6.15516   4.33457   13.43941 
 C                     8.13683   3.12071   17.81802 
 H                     8.46346   4.14626   17.63765 
 H                     3.59258   7.60985   17.92323 
 O                     9.99675   0.56371   13.91998 
 S                     4.76716  -0.32634   16.66635 
 S                     4.0372   -3.41551   16.9314 
 C                     4.95514   0.71273   13.75023 
 C                     4.5734   -0.71729   13.92778 
 C                     4.24643  -1.48956   12.80812 
 C                     3.91463  -2.83542   12.94052 
 C                     3.90497  -3.43191   14.19774 
 C                     4.18718  -2.66563   15.33083 
 C                     4.52085  -1.31014   15.20396 
 H                     4.27463  -1.02564   11.81896 
 H                     3.67431  -3.42887   12.05548 
 H                     3.66699  -4.49285   14.3069 
 C                     5.8012   -1.40306   17.63494 
 C                     5.46127  -2.75745   17.7591 
 C                     6.20717  -3.60033   18.58593 
 C                     7.26788  -3.08238   19.32238 
 C                     7.61154  -1.73857   19.20186 
 C                     6.90338  -0.88864   18.34489 
 H                     5.94614  -4.65905   18.65724 
 H                     7.84267  -3.73581   19.98261 
 H                     8.45932  -1.33739   19.76288 
 C                     7.32841   0.53481   18.21519 
 H                     6.99261   1.08281   20.28145 
 C                     7.7691    1.01922   16.98175 
 H                     7.83213   0.32673   16.1428 
 H                     6.96115   0.38617   14.42992 
 C                     5.0748    9.02468   17.22955 
 C                     6.28416   9.20635   16.55729 
 H                     6.69646   10.21027   16.43156 
 H                     4.5414    9.89074   17.63006 
 Br                    10.12246   7.28487   14.25958 
 
 Add virtual bond connecting atoms N7         and Mn1        Dist= 4.14D+00.
 Add virtual bond connecting atoms N21        and Mn1        Dist= 4.15D+00.
 Add virtual bond connecting atoms Br61       and H20        Dist= 5.09D+00.
 ---------------------------
 Mn Transition State Product
 ---------------------------
 Symbolic Z-matrix:
 Charge =  0 Multiplicity = 1
 Mn                    8.78769   2.99011   14.21267 
 C                     10.46982   3.50973   14.64234 
 O                     11.52624   3.84687   14.92604 
 C                     9.00163   3.43765   12.46725 
 O                     9.122     3.72324   11.36543 
 C                     9.38132   1.33122   13.87077 
 N                     6.71151   2.48437   13.81864 
 C                     4.45445   3.09298   13.29389 
 C                     4.02293   1.78502   13.49496 
 C                     6.29599   1.22234   13.95902 
 H                     3.75401   3.88118   13.01254 
 H                     2.96846   1.51811   13.38787 
 N                     5.088     3.47347   16.8472 
 C                     5.11287   4.62989   16.88594 
 C                     5.16761   6.06804   16.92592 
 C                     4.57514   6.81369   15.89852 
 C                     4.65422   8.20243   15.92966 
 C                     5.83456   6.70709   17.97941 
 H                     4.06357   6.30307   15.08015 
 H                     6.29417   6.11384   18.77275 
 N                     8.39191   2.54357   16.30703 
 C                     8.22036   3.19948   18.60446 
 C                     7.82438   1.91665   18.97258 
 H                     8.31909   3.99416   19.3461 
 C                     5.79479   3.40468   13.48051 
 H                     6.15664   4.42954   13.37658 
 C                     8.48008   3.47599   17.26857 
 H                     8.75526   4.48161   16.94359 
 H                     4.19504   8.78856   15.13013 
 O                     9.83642   0.30849   13.60624 
 S                     5.04386  -0.08366   16.78739 
 S                     4.47581  -3.18537   17.25719 
 C                     4.9655    0.81917   13.84466 
 C                     4.61877  -0.60832   14.10629 
 C                     4.21825  -1.4384    13.05462 
 C                     3.95151  -2.78807   13.27329 
 C                     4.0833   -3.33076   14.5484 
 C                     4.4382   -2.50593   15.61842 
 C                     4.70288  -1.14669   15.40471 
 H                     4.13787  -1.01829   12.04887 
 H                     3.65529  -3.42789   12.43886 
 H                     3.90002  -4.3943    14.7202 
 C                     6.20617  -1.0719    17.69973 
 C                     5.93735  -2.42946   17.92302 
 C                     6.78925  -3.19595   18.72147 
 C                     7.88677  -2.59563   19.3314 
 C                     8.16506  -1.25023   19.10392 
 C                     7.34979  -0.47741   18.26926 
 H                     6.58362  -4.2586    18.87233 
 H                     8.54305  -3.18911   19.97215 
 H                     9.04606  -0.78965   19.55818 
 C                     7.72793   0.93779   17.98374 
 H                     7.59261   1.67801   20.01388 
 C                     8.04719   1.30703   16.67621 
 H                     8.02561   0.5386    15.90361 
 H                     7.05069   0.46472   14.17345 
 C                     5.32028   8.84255   16.97597 
 C                     5.90799   8.09667   17.99879 
 H                     6.42716   8.60041   18.81756 
 H                     5.38196   9.93365   16.99512 
 Br                    8.2182    5.50804   14.55493 
 
 Add virtual bond connecting atoms N7         and Mn1        Dist= 4.11D+00.
 Add virtual bond connecting atoms N21        and Mn1        Dist= 4.12D+00.
 Add virtual bond connecting atoms H24        and H20        Dist= 5.64D+00.
 --------------------------------
 Mn Transition State Inital Guess
 --------------------------------
 Symbolic Z-matrix:
 Charge =  0 Multiplicity = 1
 Mn                    8.93518   3.04392   14.63322 
 C                     10.61629   3.3562    15.32306 
 O                     11.65229   3.31695   15.81726 
 C                     9.28333   3.50884   12.88421 
 O                     9.4261    3.56896   11.7461 
 C                     9.55499   1.42887   14.19313 
 N                     6.92298   2.53036   13.8726 
 C                     4.86135   3.22578   12.86449 
 C                     4.29802   1.9726    13.09302 
 C                     6.3941    1.31726   14.03305 
 H                     4.29421   4.02281   12.38063 
 H                     3.26396   1.76174   12.80791 
 N                     7.77965   4.64221   15.35667 
 C                     7.05281   5.42002   15.80003 
 C                     6.16104   6.40404   16.3452 
 C                     5.0207    5.98841   17.04829 
 C                     4.15629   6.94639   17.56806 
 C                     6.4385    7.76647   16.16304 
 H                     4.82043   4.92249   17.17906 
 H                     7.33198   8.06993   15.61269 
 N                     8.45254   2.36789   16.68389 
 C                     8.20641   2.87662   19.01441 
 C                     7.63928   1.62688   19.2521 
 H                     8.34462   3.59958   19.82024 
 C                     6.1651    3.4641    13.27489 
 H                     6.62304   4.44374   13.1213 
 C                     8.58946   3.20785   17.72271 
 H                     9.02412   4.18672   17.50859 
 H                     3.2651    6.63261   18.11648 
 O                     9.98333   0.39969   13.89484 
 S                     4.85467   0.07953   16.67666 
 S                     3.8248   -2.90826   17.06647 
 C                     5.07963   0.9869    13.69487 
 C                     4.56953  -0.39001   13.95273 
 C                     4.1517   -1.1738    12.8712 
 C                     3.69775  -2.47605   13.06092 
 C                     3.65216  -3.01799   14.34126 
 C                     4.02384  -2.2367    15.43762 
 C                     4.48523  -0.92557   15.25333 
 H                     4.20805  -0.75475   11.86342 
 H                     3.39105  -3.07897   12.20317 
 H                     3.31712  -4.04627   14.49771 
 C                     5.79203  -1.0596    17.67499 
 C                     5.3191   -2.36777   17.85241 
 C                     5.98301  -3.25265   18.70456 
 C                     7.09805  -2.81989   19.41472 
 C                     7.57407  -1.52302   19.24264 
 C                     6.94748  -0.63451   18.36064 
 H                     5.61496  -4.27547   18.81644 
 H                     7.60897  -3.50389   20.09618 
 H                     8.46302  -1.19054   19.78478 
 C                     7.51291   0.73446   18.18786 
 H                     7.30193   1.34556   20.25313 
 C                     7.96585   1.1523    16.93379 
 H                     7.93559   0.44822   16.10293 
 H                     7.03871   0.5405    14.44402 
 C                     4.42705   8.30391   17.38749 
 C                     5.56366   8.71268   16.68773 
 H                     5.77036   9.7764    16.54968 
 H                     3.74226   9.05189   17.79534 
 Br                    10.18643   5.70153   14.11448 
 

 GradGradGradGradGradGradGradGradGradGradGradGradGradGradGradGradGradGrad
 Berny optimization.
 Initialization pass.
                           ----------------------------
                           !    Initial Parameters    !
                           ! (Angstroms and Degrees)  !
 --------------------------                            --------------------------
 ! Name  Definition         TS        Reactant Product Derivative Info.         !
 --------------------------------------------------------------------------------
 ! R1    R(1,2)             1.8438    1.8326    1.8122 estimate D2E/DX2         !
 ! R2    R(1,4)             1.8429    1.8321    1.8145 estimate D2E/DX2         !
 ! R3    R(1,6)             1.785     1.8177    1.7948 estimate D2E/DX2         !
 ! R4    R(1,7)             2.2116    2.193     2.1729 estimate D2E/DX2         !
 ! R5    R(1,13)            2.1008    2.0208    4.5675 estimate D2E/DX2         !
 ! R6    R(1,21)            2.2125    2.1973    2.1777 estimate D2E/DX2         !
 ! R7    R(1,61)            2.9829    4.5263    2.6041 estimate D2E/DX2         !
 ! R8    R(2,3)             1.1485    1.1408    1.1446 estimate D2E/DX2         !
 ! R9    R(4,5)             1.1486    1.141     1.1446 estimate D2E/DX2         !
 ! R10   R(6,30)            1.154     1.1459    1.1502 estimate D2E/DX2         !
 ! R11   R(7,10)            1.3331    1.3353    1.3361 estimate D2E/DX2         !
 ! R12   R(7,25)            1.3429    1.344     1.3423 estimate D2E/DX2         !
 ! R13   R(8,9)             1.3928    1.3922    1.3919 estimate D2E/DX2         !
 ! R14   R(8,11)            1.0913    1.0912    1.0913 estimate D2E/DX2         !
 ! R15   R(8,25)            1.3874    1.387     1.3887 estimate D2E/DX2         !
 ! R16   R(9,12)            1.0932    1.093     1.093  estimate D2E/DX2         !
 ! R17   R(9,33)            1.3945    1.3942    1.3941 estimate D2E/DX2         !
 ! R18   R(10,33)           1.3969    1.3959    1.3949 estimate D2E/DX2         !
 ! R19   R(10,56)           1.0898    1.0903    1.0907 estimate D2E/DX2         !
 ! R20   R(13,14)           1.1532    1.1525    1.1573 estimate D2E/DX2         !
 ! R21   R(14,15)           1.4355    1.4351    1.4397 estimate D2E/DX2         !
 ! R22   R(15,16)           1.4027    1.4037    1.4009 estimate D2E/DX2         !
 ! R23   R(15,18)           1.4023    1.402     1.4011 estimate D2E/DX2         !
 ! R24   R(16,17)           1.3911    1.3903    1.3913 estimate D2E/DX2         !
 ! R25   R(16,19)           1.0924    1.0925    1.0919 estimate D2E/DX2         !
 ! R26   R(17,29)           1.0924    1.0924    1.0925 estimate D2E/DX2         !
 ! R27   R(17,57)           1.396     1.3968    1.3958 estimate D2E/DX2         !
 ! R28   R(18,20)           1.0924    1.0966    1.092  estimate D2E/DX2         !
 ! R29   R(18,58)           1.3914    1.392     1.3916 estimate D2E/DX2         !
 ! R30   R(20,24)           6.222     6.4856    2.987  estimate D2E/DX2         !
 ! R31   R(20,61)           4.0002    2.6937    4.6753 estimate D2E/DX2         !
 ! R32   R(21,27)           1.3429    1.344     1.3423 estimate D2E/DX2         !
 ! R33   R(21,54)           1.333     1.3354    1.3357 estimate D2E/DX2         !
 ! R34   R(22,23)           1.3928    1.3922    1.3921 estimate D2E/DX2         !
 ! R35   R(22,24)           1.0914    1.0913    1.0915 estimate D2E/DX2         !
 ! R36   R(22,27)           1.3874    1.387     1.3887 estimate D2E/DX2         !
 ! R37   R(23,52)           1.3946    1.3944    1.3947 estimate D2E/DX2         !
 ! R38   R(23,53)           1.0932    1.0931    1.0931 estimate D2E/DX2         !
 ! R39   R(25,26)           1.0922    1.0912    1.0918 estimate D2E/DX2         !
 ! R40   R(27,28)           1.0922    1.0913    1.0921 estimate D2E/DX2         !
 ! R41   R(31,39)           1.7812    1.7796    1.7771 estimate D2E/DX2         !
 ! R42   R(31,43)           1.7813    1.7795    1.7776 estimate D2E/DX2         !
 ! R43   R(32,38)           1.7731    1.7739    1.7744 estimate D2E/DX2         !
 ! R44   R(32,44)           1.7728    1.7737    1.7751 estimate D2E/DX2         !
 ! R45   R(33,34)           1.4908    1.4907    1.4921 estimate D2E/DX2         !
 ! R46   R(34,35)           1.3995    1.3989    1.3984 estimate D2E/DX2         !
 ! R47   R(34,39)           1.4091    1.4081    1.4081 estimate D2E/DX2         !
 ! R48   R(35,36)           1.3921    1.3925    1.393  estimate D2E/DX2         !
 ! R49   R(35,40)           1.0929    1.0929    1.0929 estimate D2E/DX2         !
 ! R50   R(36,37)           1.3911    1.3916    1.392  estimate D2E/DX2         !
 ! R51   R(36,41)           1.0924    1.0924    1.0924 estimate D2E/DX2         !
 ! R52   R(37,38)           1.3966    1.3967    1.3969 estimate D2E/DX2         !
 ! R53   R(37,42)           1.0927    1.0928    1.0928 estimate D2E/DX2         !
 ! R54   R(38,39)           1.4021    1.4017    1.4012 estimate D2E/DX2         !
 ! R55   R(43,44)           1.4023    1.4019    1.4018 estimate D2E/DX2         !
 ! R56   R(43,48)           1.4092    1.4083    1.4091 estimate D2E/DX2         !
 ! R57   R(44,45)           1.3964    1.3966    1.3967 estimate D2E/DX2         !
 ! R58   R(45,46)           1.391     1.3913    1.3917 estimate D2E/DX2         !
 ! R59   R(45,49)           1.0928    1.0928    1.0928 estimate D2E/DX2         !
 ! R60   R(46,47)           1.3921    1.3923    1.3926 estimate D2E/DX2         !
 ! R61   R(46,50)           1.0924    1.0924    1.0925 estimate D2E/DX2         !
 ! R62   R(47,48)           1.4       1.3994    1.3995 estimate D2E/DX2         !
 ! R63   R(47,51)           1.093     1.0929    1.093  estimate D2E/DX2         !
 ! R64   R(48,52)           1.4912    1.4912    1.4924 estimate D2E/DX2         !
 ! R65   R(52,54)           1.3973    1.3965    1.3957 estimate D2E/DX2         !
 ! R66   R(54,55)           1.0895    1.0897    1.0899 estimate D2E/DX2         !
 ! R67   R(57,58)           1.3959    1.3955    1.3957 estimate D2E/DX2         !
 ! R68   R(57,60)           1.093     1.0932    1.093  estimate D2E/DX2         !
 ! R69   R(58,59)           1.0924    1.0925    1.0926 estimate D2E/DX2         !
 ! A1    A(2,1,4)          98.054    92.3653   92.7457 estimate D2E/DX2         !
 ! A2    A(2,1,6)          85.9223   89.0464   90.182  estimate D2E/DX2         !
 ! A3    L(2,1,7,4,-1)    182.549   180.9493  182.4957 estimate D2E/DX2         !
 ! A4    L(2,1,7,4,-2)    176.8982  182.5155  184.0014 estimate D2E/DX2         !
 ! A5    A(2,1,13)        104.112    91.997   125.7855 estimate D2E/DX2         !
 ! A6    A(2,1,21)         84.4836   88.438    89.9693 estimate D2E/DX2         !
 ! A7    A(2,1,61)         62.0759   56.2774   83.9491 estimate D2E/DX2         !
 ! A8    A(4,1,6)          85.9101   89.6046   90.3282 estimate D2E/DX2         !
 ! A9    A(4,1,7)          84.4951   88.584    89.7499 estimate D2E/DX2         !
 ! A10   A(4,1,13)        103.8161   91.8808  128.6258 estimate D2E/DX2         !
 ! A11   L(4,1,21,2,-1)   182.5376  180.8033  182.7151 estimate D2E/DX2         !
 ! A12   L(4,1,21,2,-2)   182.7219  177.0536  176.5793 estimate D2E/DX2         !
 ! A13   A(4,1,61)         62.0273   58.448    85.0511 estimate D2E/DX2         !
 ! A14   A(6,1,7)          91.2049   93.4753   93.8048 estimate D2E/DX2         !
 ! A15   L(6,1,13,2,-1)   190.0344  181.0435  215.9675 estimate D2E/DX2         !
 ! A16   L(6,1,13,2,-2)   191.794   181.5308  233.9436 estimate D2E/DX2         !
 ! A17   A(6,1,21)         91.5928   93.3539   93.0834 estimate D2E/DX2         !
 ! A18   L(6,1,61,2,-1)   147.9982  145.3238  174.1311 estimate D2E/DX2         !
 ! A19   L(6,1,61,2,-2)   137.6067  138.4749  175.0624 estimate D2E/DX2         !
 ! A20   A(7,1,13)         78.15     85.4575   49.8555 estimate D2E/DX2         !
 ! A21   A(7,1,21)         92.8279   90.4855   87.3073 estimate D2E/DX2         !
 ! A22   A(7,1,61)        121.9201  122.4181   92.2883 estimate D2E/DX2         !
 ! A23   A(13,1,21)        78.0704   85.147    47.138  estimate D2E/DX2         !
 ! A24   A(21,1,61)       121.6629  119.8931   91.8407 estimate D2E/DX2         !
 ! A25   L(1,2,3,18,-1)   188.8397  183.5948  179.1891 estimate D2E/DX2         !
 ! A26   L(1,2,3,20,-1)   190.1421  183.8757  179.1808 estimate D2E/DX2         !
 ! A27   L(1,2,3,18,-2)   170.2761  177.8266  179.8722 estimate D2E/DX2         !
 ! A28   L(1,2,3,20,-2)   172.5494  178.4515  180.018  estimate D2E/DX2         !
 ! A29   L(1,4,5,8,-1)    175.5031  178.6897  179.2696 estimate D2E/DX2         !
 ! A30   L(1,4,5,8,-2)    191.6033  182.984   179.822  estimate D2E/DX2         !
 ! A31   L(1,6,30,10,-1)  181.4342  182.3857  184.091  estimate D2E/DX2         !
 ! A32   L(1,6,30,10,-2)  179.0318  178.3342  177.3374 estimate D2E/DX2         !
 ! A33   A(1,7,10)        122.0653  122.5645  119.8645 estimate D2E/DX2         !
 ! A34   A(1,7,25)        120.3358  119.8109  122.5921 estimate D2E/DX2         !
 ! A35   A(10,7,25)       117.5419  117.5685  117.4979 estimate D2E/DX2         !
 ! A36   A(9,8,11)        121.309   121.2814  121.1275 estimate D2E/DX2         !
 ! A37   A(9,8,25)        119.0822  119.1726  119.3887 estimate D2E/DX2         !
 ! A38   A(11,8,25)       119.6053  119.54    119.4715 estimate D2E/DX2         !
 ! A39   A(8,9,12)        120.886   120.8744  120.9587 estimate D2E/DX2         !
 ! A40   A(8,9,33)        118.6905  118.6564  118.5318 estimate D2E/DX2         !
 ! A41   A(12,9,33)       120.4235  120.4685  120.5085 estimate D2E/DX2         !
 ! A42   A(7,10,33)       124.0143  123.8933  124.1267 estimate D2E/DX2         !
 ! A43   A(7,10,56)       117.343   117.5412  117.4909 estimate D2E/DX2         !
 ! A44   A(33,10,56)      118.6393  118.5635  118.3822 estimate D2E/DX2         !
 ! A45   L(1,13,14,8,-1)  176.402   181.3966  162.3741 estimate D2E/DX2         !
 ! A46   L(1,13,14,8,-2)  173.8272  179.0869  267.0255 estimate D2E/DX2         !
 ! A47   L(13,14,15,11,-1)  180.3046  179.2391  180.0017 estimate D2E/DX2       !
 ! A48   L(13,14,15,1,-1)  180.8601  177.6724  179.0375 estimate D2E/DX2        !
 ! A49   L(13,14,15,11,-2)  180.8099  177.0346  181.0266 estimate D2E/DX2       !
 ! A50   L(13,14,15,1,-2)  180.1716  239.8036  180.2956 estimate D2E/DX2        !
 ! A51   A(14,15,16)      119.4903  118.7357  119.6846 estimate D2E/DX2         !
 ! A52   A(14,15,18)      119.5873  119.924   119.6422 estimate D2E/DX2         !
 ! A53   A(16,15,18)      120.9219  121.3357  120.6625 estimate D2E/DX2         !
 ! A54   A(15,16,17)      119.2369  119.0591  119.3941 estimate D2E/DX2         !
 ! A55   A(15,16,19)      119.879   120.0569  119.9277 estimate D2E/DX2         !
 ! A56   A(17,16,19)      120.8839  120.884   120.6768 estimate D2E/DX2         !
 ! A57   A(16,17,29)      119.7818  119.8038  119.684  estimate D2E/DX2         !
 ! A58   A(16,17,57)      120.0544  119.9898  120.1098 estimate D2E/DX2         !
 ! A59   A(29,17,57)      120.1638  120.2064  120.2059 estimate D2E/DX2         !
 ! A60   A(15,18,20)      119.8143  118.9494  119.9205 estimate D2E/DX2         !
 ! A61   A(15,18,58)      119.1654  118.7503  119.4073 estimate D2E/DX2         !
 ! A62   A(20,18,58)      121.0202  122.2994  120.6717 estimate D2E/DX2         !
 ! A63   A(18,20,24)       65.9726   65.4404  144.1222 estimate D2E/DX2         !
 ! A64   A(18,20,61)      127.4354  154.3209   65.683  estimate D2E/DX2         !
 ! A65   A(1,21,27)       120.2395  119.9388  122.3134 estimate D2E/DX2         !
 ! A66   A(1,21,54)       122.1425  122.4337  120.1681 estimate D2E/DX2         !
 ! A67   A(27,21,54)      117.5536  117.5714  117.5185 estimate D2E/DX2         !
 ! A68   A(23,22,24)      121.3276  121.2895  121.13   estimate D2E/DX2         !
 ! A69   A(23,22,27)      119.0459  119.1704  119.4101 estimate D2E/DX2         !
 ! A70   A(24,22,27)      119.6236  119.5367  119.4562 estimate D2E/DX2         !
 ! A71   A(22,23,52)      118.7396  118.7097  118.6152 estimate D2E/DX2         !
 ! A72   A(22,23,53)      120.8525  120.8728  120.8883 estimate D2E/DX2         !
 ! A73   A(52,23,53)      120.4075  120.4174  120.4965 estimate D2E/DX2         !
 ! A74   A(20,24,22)       87.4796   88.7455  108.9612 estimate D2E/DX2         !
 ! A75   A(7,25,8)        122.8552  122.7866  122.6245 estimate D2E/DX2         !
 ! A76   A(7,25,26)       116.7179  116.9985  116.1822 estimate D2E/DX2         !
 ! A77   A(8,25,26)       120.4268  120.2147  121.1831 estimate D2E/DX2         !
 ! A78   A(21,27,22)      122.8684  122.7734  122.5814 estimate D2E/DX2         !
 ! A79   A(21,27,28)      116.7106  117.0857  116.2978 estimate D2E/DX2         !
 ! A80   A(22,27,28)      120.421   120.1407  121.1144 estimate D2E/DX2         !
 ! A81   A(39,31,43)      101.3115  101.1404  101.0834 estimate D2E/DX2         !
 ! A82   A(38,32,44)      101.3719  101.3227  101.5852 estimate D2E/DX2         !
 ! A83   A(9,33,10)       117.6922  117.8189  117.723  estimate D2E/DX2         !
 ! A84   A(9,33,34)       122.3911  122.4855  123.3442 estimate D2E/DX2         !
 ! A85   A(10,33,34)      119.9019  119.6951  118.932  estimate D2E/DX2         !
 ! A86   A(33,34,35)      119.0608  119.6106  120.1712 estimate D2E/DX2         !
 ! A87   A(33,34,39)      122.0834  121.4251  120.9018 estimate D2E/DX2         !
 ! A88   A(35,34,39)      118.8542  118.9614  118.9228 estimate D2E/DX2         !
 ! A89   A(34,35,36)      121.0604  120.8751  120.791  estimate D2E/DX2         !
 ! A90   A(34,35,40)      118.8478  118.949   119.0101 estimate D2E/DX2         !
 ! A91   A(36,35,40)      120.0774  120.1641  120.1851 estimate D2E/DX2         !
 ! A92   A(35,36,37)      120.0376  120.1229  120.2235 estimate D2E/DX2         !
 ! A93   A(35,36,41)      120.0569  120.0321  119.9648 estimate D2E/DX2         !
 ! A94   A(37,36,41)      119.8991  119.8398  119.8025 estimate D2E/DX2         !
 ! A95   A(36,37,38)      119.7264  119.7596  119.7041 estimate D2E/DX2         !
 ! A96   A(36,37,42)      120.5593  120.5252  120.4999 estimate D2E/DX2         !
 ! A97   A(38,37,42)      119.7106  119.7114  119.7922 estimate D2E/DX2         !
 ! A98   A(32,38,37)      118.6461  118.881   119.1264 estimate D2E/DX2         !
 ! A99   A(32,38,39)      120.7886  120.7037  120.5511 estimate D2E/DX2         !
 ! A100  A(37,38,39)      120.4979  120.346   120.2631 estimate D2E/DX2         !
 ! A101  A(31,39,34)      120.7105  120.4519  120.013  estimate D2E/DX2         !
 ! A102  A(31,39,38)      119.3993  119.5476  119.8581 estimate D2E/DX2         !
 ! A103  A(34,39,38)      119.7637  119.8715  120.0164 estimate D2E/DX2         !
 ! A104  A(31,43,44)      119.3416  119.4628  119.6529 estimate D2E/DX2         !
 ! A105  A(31,43,48)      120.747   120.5391  120.2352 estimate D2E/DX2         !
 ! A106  A(44,43,48)      119.7601  119.8677  119.9881 estimate D2E/DX2         !
 ! A107  A(32,44,43)      120.8372  120.7822  120.7005 estimate D2E/DX2         !
 ! A108  A(32,44,45)      118.5614  118.7613  118.8782 estimate D2E/DX2         !
 ! A109  A(43,44,45)      120.5315  120.3979  120.368  estimate D2E/DX2         !
 ! A110  A(44,45,46)      119.7038  119.7277  119.6577 estimate D2E/DX2         !
 ! A111  A(44,45,49)      119.7008  119.7213  119.8529 estimate D2E/DX2         !
 ! A112  A(46,45,49)      120.5915  120.5477  120.4857 estimate D2E/DX2         !
 ! A113  A(45,46,47)      120.0536  120.1111  120.1807 estimate D2E/DX2         !
 ! A114  A(45,46,50)      119.9074  119.8939  119.7653 estimate D2E/DX2         !
 ! A115  A(47,46,50)      120.0323  119.9861  120.0397 estimate D2E/DX2         !
 ! A116  A(46,47,48)      121.0677  120.9516  120.9648 estimate D2E/DX2         !
 ! A117  A(46,47,51)      120.0102  120.089   120.02   estimate D2E/DX2         !
 ! A118  A(48,47,51)      118.9097  118.9444  118.9946 estimate D2E/DX2         !
 ! A119  A(43,48,47)      118.8194  118.8747  118.7417 estimate D2E/DX2         !
 ! A120  A(43,48,52)      122.1037  121.8629  121.8953 estimate D2E/DX2         !
 ! A121  A(47,48,52)      119.0732  119.261   119.3497 estimate D2E/DX2         !
 ! A122  A(23,52,48)      122.2348  122.394   123.1886 estimate D2E/DX2         !
 ! A123  A(23,52,54)      117.6556  117.7379  117.5625 estimate D2E/DX2         !
 ! A124  A(48,52,54)      120.0946  119.8596  119.2134 estimate D2E/DX2         !
 ! A125  A(21,54,52)      124.0064  123.932   124.2553 estimate D2E/DX2         !
 ! A126  A(21,54,55)      117.1611  117.5227  117.5089 estimate D2E/DX2         !
 ! A127  A(52,54,55)      118.8287  118.5437  118.2326 estimate D2E/DX2         !
 ! A128  A(17,57,58)      120.4993  120.5713  120.346  estimate D2E/DX2         !
 ! A129  A(17,57,60)      119.7135  119.6788  119.8594 estimate D2E/DX2         !
 ! A130  A(58,57,60)      119.7871  119.7498  119.7947 estimate D2E/DX2         !
 ! A131  A(18,58,57)      120.122   120.2937  120.0801 estimate D2E/DX2         !
 ! A132  A(18,58,59)      119.7079  119.5673  119.7282 estimate D2E/DX2         !
 ! A133  A(57,58,59)      120.1701  120.1387  120.1917 estimate D2E/DX2         !
 ! D1    D(4,1,7,10)      123.8344  125.1861  115.4664 estimate D2E/DX2         !
 ! D2    D(4,1,7,25)      -58.9793  -57.605   -67.0483 estimate D2E/DX2         !
 ! D3    D(6,1,7,10)       38.0606   35.6684   25.1541 estimate D2E/DX2         !
 ! D4    D(6,1,7,25)     -144.753  -147.1227 -157.3606 estimate D2E/DX2         !
 ! D5    D(13,1,7,10)    -130.7774 -142.8141  -99.4192 estimate D2E/DX2         !
 ! D6    D(13,1,7,25)      46.409    34.3949   78.0661 estimate D2E/DX2         !
 ! D7    D(21,1,7,10)     -53.5941  -57.7213  -67.7601 estimate D2E/DX2         !
 ! D8    D(21,1,7,25)     123.5923  119.4876  109.7252 estimate D2E/DX2         !
 ! D9    D(61,1,7,10)     175.8673  175.7095 -159.4965 estimate D2E/DX2         !
 ! D10   D(61,1,7,25)      -6.9464   -7.0816   17.9888 estimate D2E/DX2         !
 ! D11   D(2,1,15,16)    -123.8303 -133.3093  111.794  estimate D2E/DX2         !
 ! D12   D(2,1,15,18)      56.6439   44.4484  -16.7632 estimate D2E/DX2         !
 ! D13   D(4,1,15,16)     132.4585  134.2201    9.1545 estimate D2E/DX2         !
 ! D14   D(4,1,15,18)     -47.0672  -48.0223 -119.4027 estimate D2E/DX2         !
 ! D15   D(7,1,15,16)      52.6365   45.8921  -68.6157 estimate D2E/DX2         !
 ! D16   D(7,1,15,18)    -126.8893 -136.3502  162.8271 estimate D2E/DX2         !
 ! D17   D(21,1,15,16)    -44.1393  -45.0719 -169.5257 estimate D2E/DX2         !
 ! D18   D(21,1,15,18)    136.3349  132.6857   61.9171 estimate D2E/DX2         !
 ! D19   D(2,1,21,27)      59.2317   56.4211   59.4403 estimate D2E/DX2         !
 ! D20   D(2,1,21,54)    -123.7585 -126.3704 -120.5719 estimate D2E/DX2         !
 ! D21   D(6,1,21,27)     144.9792  145.374   149.6209 estimate D2E/DX2         !
 ! D22   D(6,1,21,54)     -38.011   -37.4176  -30.3913 estimate D2E/DX2         !
 ! D23   D(7,1,21,27)    -123.7353 -121.1162 -116.71   estimate D2E/DX2         !
 ! D24   D(7,1,21,54)      53.2745   56.0923   63.2778 estimate D2E/DX2         !
 ! D25   D(13,1,21,27)    -46.4781  -35.7166  -83.5235 estimate D2E/DX2         !
 ! D26   D(13,1,21,54)    130.5317  141.4919   96.4644 estimate D2E/DX2         !
 ! D27   D(61,1,21,27)      6.9892    7.4381  -24.5047 estimate D2E/DX2         !
 ! D28   D(61,1,21,54)   -176.001  -175.3534  155.4832 estimate D2E/DX2         !
 ! D29   D(1,7,10,33)     173.0916  173.524   174.137  estimate D2E/DX2         !
 ! D30   D(1,7,10,56)      -7.5933   -7.0004   -6.0546 estimate D2E/DX2         !
 ! D31   D(25,7,10,33)     -4.1697   -3.7441   -3.4745 estimate D2E/DX2         !
 ! D32   D(25,7,10,56)    175.1454  175.7315  176.3338 estimate D2E/DX2         !
 ! D33   D(1,7,25,8)     -175.2756 -175.7599 -176.6906 estimate D2E/DX2         !
 ! D34   D(1,7,25,26)       4.6017    4.3877    2.1564 estimate D2E/DX2         !
 ! D35   D(10,7,25,8)       2.0353    1.5867    0.8509 estimate D2E/DX2         !
 ! D36   D(10,7,25,26)   -178.0874 -178.2657  179.698  estimate D2E/DX2         !
 ! D37   D(11,8,9,12)      -1.0916   -0.9612   -0.7703 estimate D2E/DX2         !
 ! D38   D(11,8,9,33)     178.917   179.3387  179.588  estimate D2E/DX2         !
 ! D39   D(25,8,9,12)     178.2272  178.1431  177.9414 estimate D2E/DX2         !
 ! D40   D(25,8,9,33)      -1.7641   -1.557    -1.7003 estimate D2E/DX2         !
 ! D41   D(9,8,25,7)        0.8665    1.0088    1.6874 estimate D2E/DX2         !
 ! D42   D(9,8,25,26)    -179.0064 -179.1434 -177.1032 estimate D2E/DX2         !
 ! D43   D(11,8,25,7)    -179.8029 -179.871  -179.5793 estimate D2E/DX2         !
 ! D44   D(11,8,25,26)      0.3242   -0.0232    1.63   estimate D2E/DX2         !
 ! D45   D(8,9,33,10)      -0.1429   -0.3821   -0.6608 estimate D2E/DX2         !
 ! D46   D(8,9,33,34)    -178.7393  179.868   179.0056 estimate D2E/DX2         !
 ! D47   D(12,9,33,10)    179.8657  179.9165  179.6958 estimate D2E/DX2         !
 ! D48   D(12,9,33,34)      1.2693    0.1666   -0.6377 estimate D2E/DX2         !
 ! D49   D(7,10,33,9)       3.2563    3.1713    3.4011 estimate D2E/DX2         !
 ! D50   D(7,10,33,34)   -178.1109 -177.0715 -176.2806 estimate D2E/DX2         !
 ! D51   D(56,10,33,9)   -176.0505 -176.2993 -176.4057 estimate D2E/DX2         !
 ! D52   D(56,10,33,34)     2.5823    3.4579    3.9126 estimate D2E/DX2         !
 ! D53   D(14,15,16,17)  -179.6515  179.126  -178.7536 estimate D2E/DX2         !
 ! D54   D(14,15,16,19)     0.1935   -0.8312    0.8219 estimate D2E/DX2         !
 ! D55   D(18,15,16,17)     0.0807   -0.0919    0.0553 estimate D2E/DX2         !
 ! D56   D(18,15,16,19)   179.9257  179.9509  179.6308 estimate D2E/DX2         !
 ! D57   D(14,15,18,20)    -0.2854    0.532    -1.043  estimate D2E/DX2         !
 ! D58   D(14,15,18,58)   179.588  -179.1344  178.6954 estimate D2E/DX2         !
 ! D59   D(16,15,18,20)   179.9827  179.7407 -179.8523 estimate D2E/DX2         !
 ! D60   D(16,15,18,58)    -0.1439    0.0743   -0.114  estimate D2E/DX2         !
 ! D61   D(15,16,17,29)   179.9514 -179.9637  179.9164 estimate D2E/DX2         !
 ! D62   D(15,16,17,57)     0.0234    0.0098    0.0838 estimate D2E/DX2         !
 ! D63   D(19,16,17,29)     0.108    -0.0068    0.3441 estimate D2E/DX2         !
 ! D64   D(19,16,17,57)  -179.82    179.9667 -179.4885 estimate D2E/DX2         !
 ! D65   D(16,17,57,58)    -0.0634    0.0885   -0.1643 estimate D2E/DX2         !
 ! D66   D(16,17,57,60)   179.7927 -179.8302  179.856  estimate D2E/DX2         !
 ! D67   D(29,17,57,58)  -179.9911 -179.9381 -179.996  estimate D2E/DX2         !
 ! D68   D(29,17,57,60)    -0.135     0.1432    0.0243 estimate D2E/DX2         !
 ! D69   D(15,18,20,24)   -45.9223  -44.9399   59.1065 estimate D2E/DX2         !
 ! D70   D(15,18,20,61)    -3.5457   -3.1939   64.8127 estimate D2E/DX2         !
 ! D71   D(58,18,20,24)   134.2067  134.7141 -120.6284 estimate D2E/DX2         !
 ! D72   D(58,18,20,61)   176.5833  176.4601 -114.9223 estimate D2E/DX2         !
 ! D73   D(15,18,58,57)     0.1032    0.0251    0.0337 estimate D2E/DX2         !
 ! D74   D(15,18,58,59)  -179.9031  179.8428 -179.9741 estimate D2E/DX2         !
 ! D75   D(20,18,58,57)   179.975  -179.6296  179.77   estimate D2E/DX2         !
 ! D76   D(20,18,58,59)    -0.0312    0.1881   -0.2378 estimate D2E/DX2         !
 ! D77   D(18,20,24,22)    94.1786  106.9823  -43.8889 estimate D2E/DX2         !
 ! D78   D(1,21,27,22)    174.9049  175.6299  179.5633 estimate D2E/DX2         !
 ! D79   D(1,21,27,28)     -5.0694   -4.5457    0.4734 estimate D2E/DX2         !
 ! D80   D(54,21,27,22)    -2.2394   -1.7122   -0.4249 estimate D2E/DX2         !
 ! D81   D(54,21,27,28)   177.7862  178.1121 -179.5147 estimate D2E/DX2         !
 ! D82   D(1,21,54,52)   -172.7951 -173.4691 -177.5716 estimate D2E/DX2         !
 ! D83   D(1,21,54,55)      7.916     6.9972    3.0894 estimate D2E/DX2         !
 ! D84   D(27,21,54,52)     4.2912    3.802     2.4169 estimate D2E/DX2         !
 ! D85   D(27,21,54,55)  -174.9978 -175.7317 -176.9222 estimate D2E/DX2         !
 ! D86   D(24,22,23,52)  -178.7138 -179.0598 -179.3836 estimate D2E/DX2         !
 ! D87   D(24,22,23,53)     1.0513    1.0489    0.6468 estimate D2E/DX2         !
 ! D88   D(27,22,23,52)     1.9113    1.6181    1.321  estimate D2E/DX2         !
 ! D89   D(27,22,23,53)  -178.3237 -178.2733 -178.6486 estimate D2E/DX2         !
 ! D90   D(23,22,24,20)  -147.1179 -161.2304 -115.1371 estimate D2E/DX2         !
 ! D91   D(27,22,24,20)    32.2535   18.0893   64.158  estimate D2E/DX2         !
 ! D92   D(23,22,27,21)    -0.7948   -0.9401   -1.4103 estimate D2E/DX2         !
 ! D93   D(23,22,27,28)   179.1786  179.2407  177.6366 estimate D2E/DX2         !
 ! D94   D(24,22,27,21)   179.8194  179.7257  179.2824 estimate D2E/DX2         !
 ! D95   D(24,22,27,28)    -0.2072   -0.0935   -1.6707 estimate D2E/DX2         !
 ! D96   D(22,23,52,48)   178.5177  179.1964  178.2832 estimate D2E/DX2         !
 ! D97   D(22,23,52,54)    -0.0788    0.2572    0.4707 estimate D2E/DX2         !
 ! D98   D(53,23,52,48)    -1.2484   -0.9118   -1.7471 estimate D2E/DX2         !
 ! D99   D(53,23,52,54)  -179.8449 -179.8509 -179.5596 estimate D2E/DX2         !
 ! D100  D(43,31,39,34)  -138.2248 -137.9858 -137.7194 estimate D2E/DX2         !
 ! D101  D(43,31,39,38)    45.8734   46.1486   46.1347 estimate D2E/DX2         !
 ! D102  D(39,31,43,44)   -46.2242  -46.3289  -46.4801 estimate D2E/DX2         !
 ! D103  D(39,31,43,48)   138.2578  137.8275  137.5648 estimate D2E/DX2         !
 ! D104  D(44,32,38,37)   138.903   139.1574  139.4507 estimate D2E/DX2         !
 ! D105  D(44,32,38,39)   -44.068   -43.8596  -43.3457 estimate D2E/DX2         !
 ! D106  D(38,32,44,43)    43.7074   43.6728   42.9652 estimate D2E/DX2         !
 ! D107  D(38,32,44,45)  -139.3179 -139.099  -139.6806 estimate D2E/DX2         !
 ! D108  D(9,33,34,35)     60.3445   63.6268   69.9755 estimate D2E/DX2         !
 ! D109  D(9,33,34,39)   -119.1904 -115.7413 -110.7766 estimate D2E/DX2         !
 ! D110  D(10,33,34,35)  -118.2218 -116.1186 -110.3618 estimate D2E/DX2         !
 ! D111  D(10,33,34,39)    62.2433   64.5133   68.886  estimate D2E/DX2         !
 ! D112  D(33,34,35,36)   178.4802  178.5788  176.9964 estimate D2E/DX2         !
 ! D113  D(33,34,35,40)    -0.1365   -0.1751   -1.6547 estimate D2E/DX2         !
 ! D114  D(39,34,35,36)    -1.9697   -2.0374   -2.2662 estimate D2E/DX2         !
 ! D115  D(39,34,35,40)   179.4136  179.2087  179.0827 estimate D2E/DX2         !
 ! D116  D(33,34,39,31)     5.4316    5.5876    7.0836 estimate D2E/DX2         !
 ! D117  D(33,34,39,38)  -178.6814 -178.5601 -176.7767 estimate D2E/DX2         !
 ! D118  D(35,34,39,31)  -174.1042 -173.7845 -173.6594 estimate D2E/DX2         !
 ! D119  D(35,34,39,38)     1.7828    2.0677    2.4803 estimate D2E/DX2         !
 ! D120  D(34,35,36,37)     0.087    -0.0222   -0.1084 estimate D2E/DX2         !
 ! D121  D(34,35,36,41)  -178.9917 -179.1978 -179.0007 estimate D2E/DX2         !
 ! D122  D(40,35,36,37)   178.6868  178.7166  178.5268 estimate D2E/DX2         !
 ! D123  D(40,35,36,41)    -0.3919   -0.459    -0.3654 estimate D2E/DX2         !
 ! D124  D(35,36,37,38)     1.9867    2.0578    2.2802 estimate D2E/DX2         !
 ! D125  D(35,36,37,42)  -178.7146 -178.6506 -178.4274 estimate D2E/DX2         !
 ! D126  D(41,36,37,38)  -178.9331 -178.765  -178.8257 estimate D2E/DX2         !
 ! D127  D(41,36,37,42)     0.3656    0.5266    0.4667 estimate D2E/DX2         !
 ! D128  D(36,37,38,32)   174.8794  174.9832  175.1639 estimate D2E/DX2         !
 ! D129  D(36,37,38,39)    -2.1585   -2.0109   -2.0479 estimate D2E/DX2         !
 ! D130  D(42,37,38,32)    -4.4253   -4.3142   -4.1335 estimate D2E/DX2         !
 ! D131  D(42,37,38,39)   178.5368  178.6917  178.6546 estimate D2E/DX2         !
 ! D132  D(32,38,39,31)    -0.7744   -1.1138   -1.3711 estimate D2E/DX2         !
 ! D133  D(32,38,39,34)  -176.7156 -177.0037 -177.5168 estimate D2E/DX2         !
 ! D134  D(37,38,39,31)   176.1995  175.8249  175.8006 estimate D2E/DX2         !
 ! D135  D(37,38,39,34)     0.2583   -0.065    -0.3451 estimate D2E/DX2         !
 ! D136  D(31,43,44,32)     1.43      1.4799    2.1049 estimate D2E/DX2         !
 ! D137  D(31,43,44,45)  -175.485  -175.7029 -175.2098 estimate D2E/DX2         !
 ! D138  D(48,43,44,32)   176.9929  177.3518  178.0701 estimate D2E/DX2         !
 ! D139  D(48,43,44,45)     0.0779    0.169     0.7554 estimate D2E/DX2         !
 ! D140  D(31,43,48,47)   173.4212  173.5912  172.9869 estimate D2E/DX2         !
 ! D141  D(31,43,48,52)    -5.8672   -5.9821   -8.3483 estimate D2E/DX2         !
 ! D142  D(44,43,48,47)    -2.0782   -2.2356   -2.9545 estimate D2E/DX2         !
 ! D143  D(44,43,48,52)   178.6335  178.1911  175.7103 estimate D2E/DX2         !
 ! D144  D(32,44,45,46)  -174.9753 -175.225  -175.3349 estimate D2E/DX2         !
 ! D145  D(32,44,45,49)     4.3108    4.1245    3.9602 estimate D2E/DX2         !
 ! D146  D(43,44,45,46)     2.0089    2.0141    2.0283 estimate D2E/DX2         !
 ! D147  D(43,44,45,49)  -178.705  -178.6364 -178.6766 estimate D2E/DX2         !
 ! D148  D(44,45,46,47)    -2.0609   -2.099    -2.5729 estimate D2E/DX2         !
 ! D149  D(44,45,46,50)   178.8786  178.9864  178.7977 estimate D2E/DX2         !
 ! D150  D(49,45,46,47)   178.6595  178.557   178.1365 estimate D2E/DX2         !
 ! D151  D(49,45,46,50)    -0.401    -0.3576   -0.4929 estimate D2E/DX2         !
 ! D152  D(45,46,47,48)     0.0243   -0.0054    0.3266 estimate D2E/DX2         !
 ! D153  D(45,46,47,51)  -178.6834 -178.5796 -178.0041 estimate D2E/DX2         !
 ! D154  D(50,46,47,48)   179.0836  178.9083  178.9522 estimate D2E/DX2         !
 ! D155  D(50,46,47,51)     0.3758    0.334     0.6215 estimate D2E/DX2         !
 ! D156  D(46,47,48,43)     2.0442    2.1695    2.4328 estimate D2E/DX2         !
 ! D157  D(46,47,48,52)  -178.6455 -178.246  -176.2666 estimate D2E/DX2         !
 ! D158  D(51,47,48,43)  -179.2341 -179.2402 -179.2196 estimate D2E/DX2         !
 ! D159  D(51,47,48,52)     0.0762    0.3443    2.0809 estimate D2E/DX2         !
 ! D160  D(43,48,52,23)   119.7119  118.0827  119.4688 estimate D2E/DX2         !
 ! D161  D(43,48,52,54)   -61.725   -62.9999  -62.7531 estimate D2E/DX2         !
 ! D162  D(47,48,52,23)   -59.5748  -61.489   -61.8744 estimate D2E/DX2         !
 ! D163  D(47,48,52,54)   118.9884  117.4284  115.9038 estimate D2E/DX2         !
 ! D164  D(23,52,54,21)    -3.1652   -3.103    -2.4508 estimate D2E/DX2         !
 ! D165  D(23,52,54,55)   176.1127  176.4263  176.8838 estimate D2E/DX2         !
 ! D166  D(48,52,54,21)   178.207   177.9299  179.6466 estimate D2E/DX2         !
 ! D167  D(48,52,54,55)    -2.5152   -2.5409   -1.0188 estimate D2E/DX2         !
 ! D168  D(17,57,58,18)    -0.0009   -0.1065    0.1048 estimate D2E/DX2         !
 ! D169  D(17,57,58,59)  -179.9947 -179.9232 -179.8873 estimate D2E/DX2         !
 ! D170  D(60,57,58,18)  -179.8569  179.8122 -179.9155 estimate D2E/DX2         !
 ! D171  D(60,57,58,59)     0.1494   -0.0045    0.0923 estimate D2E/DX2         !
 --------------------------------------------------------------------------------
 Trust Radius=3.00D-01 FncErr=1.00D-07 GrdErr=1.00D-06 EigMax=2.50D+02 EigMin=1.00D-04
 Number of steps in this run=    366 maximum allowed number of steps=    366.
 Search for a saddle point of order  1.
 GradGradGradGradGradGradGradGradGradGradGradGradGradGradGradGradGradGrad

 Stoichiometry    C32H19BrMnN3O3S2
 Framework group  C1[X(C32H19BrMnN3O3S2)]
 Deg. of freedom   177
 Full point group                 C1      NOp   1
 Largest Abelian subgroup         C1      NOp   1
 Largest concise Abelian subgroup C1      NOp   1
                         Standard orientation:                         
 ---------------------------------------------------------------------
 Center     Atomic      Atomic             Coordinates (Angstroms)
 Number     Number       Type             X           Y           Z
 ---------------------------------------------------------------------
      1         25           0        1.781474   -1.582784    0.084877
      2          6           0        2.618584   -2.379136    1.521748
      3          8           0        2.913999   -2.934181    2.482862
      4          6           0        2.629707   -2.516923   -1.258349
      5          8           0        2.929620   -3.164559   -2.158307
      6          6           0        0.644561   -2.957425    0.148245
      7          7           0        0.642607   -0.656742   -1.569409
      8          6           0        0.615679    0.698192   -3.547697
      9          6           0       -0.777137    0.704643   -3.554405
     10          6           0       -0.689033   -0.693112   -1.619151
     11          1           0        1.188935    1.226087   -4.311719
     12          1           0       -1.332080    1.255630   -4.318267
     13          7           0        2.642799    0.330740   -0.013654
     14          6           0        2.981270    1.431744   -0.069128
     15          6           0        3.423163    2.795822   -0.138313
     16          6           0        2.477242    3.830833   -0.100541
     17          6           0        2.910744    5.150519   -0.175301
     18          6           0        4.792927    3.075151   -0.248249
     19          1           0        1.414222    3.593746   -0.015825
     20          1           0        5.513976    2.255011   -0.275785
     21          7           0        0.639171   -0.486912    1.630659
     22          6           0        0.613422    1.073109    3.451747
     23          6           0       -0.779318    1.088449    3.450625
     24          1           0        1.186983    1.676353    4.157633
     25          6           0        1.282068    0.017078   -2.539232
     26          1           0        2.373717    0.011191   -2.503537
     27          6           0        1.279107    0.282785    2.525914
     28          1           0        2.370819    0.264122    2.498023
     29          1           0        2.181627    5.963570   -0.147482
     30          8           0       -0.063673   -3.867524    0.190728
     31         16           0       -2.857455    1.257709   -0.075549
     32         16           0       -6.027652    0.959143   -0.061214
     33          6           0       -1.454702   -0.007187   -2.564989
     34          6           0       -2.942787   -0.079090   -2.510145
     35          6           0       -3.636893   -0.633585   -3.591512
     36          6           0       -5.023950   -0.750035   -3.571015
     37          6           0       -5.743366   -0.310308   -2.464604
     38          6           0       -5.072357    0.285402   -1.394352
     39          6           0       -3.675221    0.402702   -1.407018
     40          1           0       -3.069262   -0.998391   -4.451231
     41          1           0       -5.547753   -1.200516   -4.417192
     42          1           0       -6.830390   -0.416672   -2.430619
     43          6           0       -3.677136    0.559661    1.343530
     44          6           0       -5.075057    0.448946    1.344138
     45          6           0       -5.750092   -0.006648    2.478471
     46          6           0       -5.033222   -0.313393    3.630393
     47          6           0       -3.645152   -0.207165    3.636759
     48          6           0       -2.947018    0.206909    2.496077
     49          1           0       -6.837946   -0.107839    2.456975
     50          1           0       -5.559698   -0.652537    4.525430
     51          1           0       -3.080954   -0.468986    4.535550
     52          6           0       -1.458157    0.275824    2.542984
     53          1           0       -1.333558    1.721090    4.148912
     54          6           0       -0.692743   -0.511836    1.679179
     55          1           0       -1.202105   -1.201140    1.006583
     56          1           0       -1.201046   -1.307191   -0.878532
     57          6           0        4.273163    5.433617   -0.287003
     58          6           0        5.210855    4.400165   -0.323371
     59          1           0        6.275661    4.627833   -0.410795
     60          1           0        4.607368    6.472482   -0.348769
     61         35           0        4.763424   -1.656218    0.099397
 ---------------------------------------------------------------------
 Rotational constants (GHZ):           0.0972467           0.0462519           0.0450614
 General basis read from cards:  (5D, 7F)
 There are   800 symmetry adapted cartesian basis functions of A   symmetry.
 There are   749 symmetry adapted basis functions of A   symmetry.
   749 basis functions,  1349 primitive gaussians,   800 cartesian basis functions
   174 alpha electrons      174 beta electrons
       nuclear repulsion energy      6629.6861362795 Hartrees.
 NAtoms=   61 NActive=   61 NUniq=   61 SFac= 1.00D+00 NAtFMM=   60 NAOKFM=T Big=T
 Integral buffers will be    131072 words long.
 Raffenetti 2 integral format.
 Two-electron integral symmetry is turned on.
 Nuclear repulsion after empirical dispersion term =     6629.6247445179 Hartrees.
 ------------------------------------------------------------------------------
 Polarizable Continuum Model (PCM)
 =================================
 Model                : PCM.
 Atomic radii         : UFF (Universal Force Field).
 Polarization charges : Total charges.
 Charge compensation  : None.
 Solution method      : On-the-fly selection.
 Cavity type          : Scaled VdW (van der Waals Surface) (Alpha=1.100).
 Cavity algorithm     : GePol (No added spheres)
                        Default sphere list used, NSphG=   61.
                        Lebedev-Laikov grids with approx.  5.0 points / Ang**2.
                        Smoothing algorithm: York/Karplus (Gamma=1.0000).
                        Polarization charges: spherical gaussians, with
                                              point-specific exponents (IZeta= 3).
                        Self-potential: point-specific (ISelfS= 7).
                        Self-field    : sphere-specific E.n sum rule (ISelfD= 2).
 1st derivatives      : Analytical E(r).r(x)/FMM algorithm (CHGder, D1EAlg=3).
                        Cavity 1st derivative terms included.
 Solvent              : TetraHydroFuran, Eps=   7.425700 Eps(inf)=   1.974025
 ------------------------------------------------------------------------------
 One-electron integrals computed using PRISM.
 PrsmSu:  requested number of processors reduced to:  11 ShMem   1 Linda.
 NBasis=   749 RedAO= T EigKep=  2.27D-04  NBF=   749
 NBsUse=   749 1.00D-06 EigRej= -1.00D+00 NBFU=   749
 ExpMin= 3.93D-02 ExpMax= 2.77D+05 ExpMxC= 1.70D+04 IAcc=3 IRadAn=         5 AccDes= 0.00D+00
 Harris functional with IExCor= 4639 and IRadAn=       5 diagonalized for initial guess.
 HarFok:  IExCor= 4639 AccDes= 0.00D+00 IRadAn=         5 IDoV= 1 UseB2=F ITyADJ=14
 ICtDFT=  3500011 ScaDFX=  1.000000  1.000000  1.000000  1.000000
 FoFCou: FMM=F IPFlag=           0 FMFlag=      100000 FMFlg1=        2001
         NFxFlg=           0 DoJE=T BraDBF=F KetDBF=T FulRan=T
         wScrn=  0.000000 ICntrl=       500 IOpCl=  0 I1Cent=   200000004 NGrid=           0
         NMat0=    1 NMatS0=      1 NMatT0=    0 NMatD0=    1 NMtDS0=    0 NMtDT0=    0
 Petite list used in FoFCou.
 Requested convergence on RMS density matrix=1.00D-08 within 128 cycles.
 Requested convergence on MAX density matrix=1.00D-06.
 Requested convergence on             energy=1.00D-06.
 No special actions if energy rises.
 CoulSu:  requested number of processors reduced to:   9 ShMem   1 Linda.
 Inv3:  Mode=1 IEnd=    70393008.
 Iteration    1 A*A^-1 deviation from unit magnitude is 3.33D-15 for    608.
 Iteration    1 A*A^-1 deviation from orthogonality  is 1.90D-15 for   2672   2531.
 Iteration    1 A^-1*A deviation from unit magnitude is 3.11D-15 for   2444.
 Iteration    1 A^-1*A deviation from orthogonality  is 2.00D-15 for   2997     91.
 CoulSu:  requested number of processors reduced to:   9 ShMem   1 Linda.
 CoulSu:  requested number of processors reduced to:   9 ShMem   1 Linda.
 Error on total polarization charges =  0.02060
 SCF Done:  E(RwB97XD) =  -6140.20727668     A.U. after   20 cycles
            NFock= 20  Conv=0.88D-08     -V/T= 2.0037

 **********************************************************************

            Population analysis using the SCF density.

 **********************************************************************

 Orbital symmetries:
       Occupied  (A) (A) (A) (A) (A) (A) (A) (A) (A) (A) (A) (A)
                 (A) (A) (A) (A) (A) (A) (A) (A) (A) (A) (A) (A)
                 (A) (A) (A) (A) (A) (A) (A) (A) (A) (A) (A) (A)
                 (A) (A) (A) (A) (A) (A) (A) (A) (A) (A) (A) (A)
                 (A) (A) (A) (A) (A) (A) (A) (A) (A) (A) (A) (A)
                 (A) (A) (A) (A) (A) (A) (A) (A) (A) (A) (A) (A)
                 (A) (A) (A) (A) (A) (A) (A) (A) (A) (A) (A) (A)
                 (A) (A) (A) (A) (A) (A) (A) (A) (A) (A) (A) (A)
                 (A) (A) (A) (A) (A) (A) (A) (A) (A) (A) (A) (A)
                 (A) (A) (A) (A) (A) (A) (A) (A) (A) (A) (A) (A)
                 (A) (A) (A) (A) (A) (A) (A) (A) (A) (A) (A) (A)
                 (A) (A) (A) (A) (A) (A) (A) (A) (A) (A) (A) (A)
                 (A) (A) (A) (A) (A) (A) (A) (A) (A) (A) (A) (A)
                 (A) (A) (A) (A) (A) (A) (A) (A) (A) (A) (A) (A)
                 (A) (A) (A) (A) (A) (A)
       Virtual   (A) (A) (A) (A) (A) (A) (A) (A) (A) (A) (A) (A)
                 (A) (A) (A) (A) (A) (A) (A) (A) (A) (A) (A) (A)
                 (A) (A) (A) (A) (A) (A) (A) (A) (A) (A) (A) (A)
                 (A) (A) (A) (A) (A) (A) (A) (A) (A) (A) (A) (A)
                 (A) (A) (A) (A) (A) (A) (A) (A) (A) (A) (A) (A)
                 (A) (A) (A) (A) (A) (A) (A) (A) (A) (A) (A) (A)
                 (A) (A) (A) (A) (A) (A) (A) (A) (A) (A) (A) (A)
                 (A) (A) (A) (A) (A) (A) (A) (A) (A) (A) (A) (A)
                 (A) (A) (A) (A) (A) (A) (A) (A) (A) (A) (A) (A)
                 (A) (A) (A) (A) (A) (A) (A) (A) (A) (A) (A) (A)
                 (A) (A) (A) (A) (A) (A) (A) (A) (A) (A) (A) (A)
                 (A) (A) (A) (A) (A) (A) (A) (A) (A) (A) (A) (A)
                 (A) (A) (A) (A) (A) (A) (A) (A) (A) (A) (A) (A)
                 (A) (A) (A) (A) (A) (A) (A) (A) (A) (A) (A) (A)
                 (A) (A) (A) (A) (A) (A) (A) (A) (A) (A) (A) (A)
                 (A) (A) (A) (A) (A) (A) (A) (A) (A) (A) (A) (A)
                 (A) (A) (A) (A) (A) (A) (A) (A) (A) (A) (A) (A)
                 (A) (A) (A) (A) (A) (A) (A) (A) (A) (A) (A) (A)
                 (A) (A) (A) (A) (A) (A) (A) (A) (A) (A) (A) (A)
                 (A) (A) (A) (A) (A) (A) (A) (A) (A) (A) (A) (A)
                 (A) (A) (A) (A) (A) (A) (A) (A) (A) (A) (A) (A)
                 (A) (A) (A) (A) (A) (A) (A) (A) (A) (A) (A) (A)
                 (A) (A) (A) (A) (A) (A) (A) (A) (A) (A) (A) (A)
                 (A) (A) (A) (A) (A) (A) (A) (A) (A) (A) (A) (A)
                 (A) (A) (A) (A) (A) (A) (A) (A) (A) (A) (A) (A)
                 (A) (A) (A) (A) (A) (A) (A) (A) (A) (A) (A) (A)
                 (A) (A) (A) (A) (A) (A) (A) (A) (A) (A) (A) (A)
                 (A) (A) (A) (A) (A) (A) (A) (A) (A) (A) (A) (A)
                 (A) (A) (A) (A) (A) (A) (A) (A) (A) (A) (A) (A)
                 (A) (A) (A) (A) (A) (A) (A) (A) (A) (A) (A) (A)
                 (A) (A) (A) (A) (A) (A) (A) (A) (A) (A) (A) (A)
                 (A) (A) (A) (A) (A) (A) (A) (A) (A) (A) (A) (A)
                 (A) (A) (A) (A) (A) (A) (A) (A) (A) (A) (A) (A)
                 (A) (A) (A) (A) (A) (A) (A) (A) (A) (A) (A) (A)
                 (A) (A) (A) (A) (A) (A) (A) (A) (A) (A) (A) (A)
                 (A) (A) (A) (A) (A) (A) (A) (A) (A) (A) (A) (A)
                 (A) (A) (A) (A) (A) (A) (A) (A) (A) (A) (A) (A)
                 (A) (A) (A) (A) (A) (A) (A) (A) (A) (A) (A) (A)
                 (A) (A) (A) (A) (A) (A) (A) (A) (A) (A) (A) (A)
                 (A) (A) (A) (A) (A) (A) (A) (A) (A) (A) (A) (A)
                 (A) (A) (A) (A) (A) (A) (A) (A) (A) (A) (A) (A)
                 (A) (A) (A) (A) (A) (A) (A) (A) (A) (A) (A) (A)
                 (A) (A) (A) (A) (A) (A) (A) (A) (A) (A) (A) (A)
                 (A) (A) (A) (A) (A) (A) (A) (A) (A) (A) (A) (A)
                 (A) (A) (A) (A) (A) (A) (A) (A) (A) (A) (A) (A)
                 (A) (A) (A) (A) (A) (A) (A) (A) (A) (A) (A) (A)
                 (A) (A) (A) (A) (A) (A) (A) (A) (A) (A) (A) (A)
                 (A) (A) (A) (A) (A) (A) (A) (A) (A) (A) (A)
 The electronic state is 1-A.
 Alpha  occ. eigenvalues -- -482.96048-235.68276 -89.04277 -89.03836 -62.54123
 Alpha  occ. eigenvalues --  -56.34690 -56.34674 -56.34652 -27.45065 -23.50982
 Alpha  occ. eigenvalues --  -23.50872 -23.50315 -19.32441 -19.32132 -19.32124
 Alpha  occ. eigenvalues --  -14.49818 -14.49817 -14.48316 -10.40263 -10.40256
 Alpha  occ. eigenvalues --  -10.40104 -10.37535 -10.36643 -10.36632 -10.36125
 Alpha  occ. eigenvalues --  -10.36121 -10.36061 -10.36055 -10.35984 -10.35651
 Alpha  occ. eigenvalues --  -10.35646 -10.34462 -10.34441 -10.34416 -10.34397
 Alpha  occ. eigenvalues --  -10.34331 -10.34324 -10.33778 -10.33611 -10.33116
 Alpha  occ. eigenvalues --  -10.33108 -10.32944 -10.32835 -10.32831 -10.32638
 Alpha  occ. eigenvalues --  -10.32603 -10.32597 -10.32552 -10.32426 -10.32424
 Alpha  occ. eigenvalues --   -8.70929  -8.09343  -8.08991  -6.52675  -6.52605
 Alpha  occ. eigenvalues --   -6.52523  -6.04807  -6.04451  -6.04415  -6.04056
 Alpha  occ. eigenvalues --   -6.03781  -6.03426  -3.24500  -2.63189  -2.63183
 Alpha  occ. eigenvalues --   -2.63115  -2.63059  -2.63050  -2.10355  -2.09941
 Alpha  occ. eigenvalues --   -2.08873  -1.21196  -1.21052  -1.20989  -1.07977
 Alpha  occ. eigenvalues --   -1.07704  -1.03876  -1.01294  -0.98847  -0.98336
 Alpha  occ. eigenvalues --   -0.94664  -0.93460  -0.92265  -0.91215  -0.89733
 Alpha  occ. eigenvalues --   -0.88606  -0.88299  -0.86703  -0.86601  -0.85459
 Alpha  occ. eigenvalues --   -0.82964  -0.78963  -0.76827  -0.75929  -0.75902
 Alpha  occ. eigenvalues --   -0.75243  -0.75086  -0.74952  -0.72467  -0.72310
 Alpha  occ. eigenvalues --   -0.70362  -0.69955  -0.67328  -0.66993  -0.66051
 Alpha  occ. eigenvalues --   -0.64683  -0.64396  -0.63563  -0.63165  -0.62375
 Alpha  occ. eigenvalues --   -0.61572  -0.60875  -0.59962  -0.59654  -0.58248
 Alpha  occ. eigenvalues --   -0.57857  -0.57680  -0.57493  -0.57173  -0.57061
 Alpha  occ. eigenvalues --   -0.55721  -0.55440  -0.54971  -0.54826  -0.54687
 Alpha  occ. eigenvalues --   -0.54233  -0.53840  -0.53306  -0.53291  -0.53239
 Alpha  occ. eigenvalues --   -0.52761  -0.52685  -0.52505  -0.52228  -0.52204
 Alpha  occ. eigenvalues --   -0.51957  -0.51468  -0.50860  -0.50778  -0.49744
 Alpha  occ. eigenvalues --   -0.49690  -0.49164  -0.48784  -0.48417  -0.48311
 Alpha  occ. eigenvalues --   -0.47624  -0.47289  -0.46274  -0.45965  -0.45348
 Alpha  occ. eigenvalues --   -0.44950  -0.44479  -0.44422  -0.43822  -0.41162
 Alpha  occ. eigenvalues --   -0.40849  -0.40063  -0.39911  -0.39896  -0.38504
 Alpha  occ. eigenvalues --   -0.37424  -0.36980  -0.35956  -0.35914  -0.35704
 Alpha  occ. eigenvalues --   -0.34259  -0.33362  -0.31506  -0.31420  -0.30856
 Alpha  occ. eigenvalues --   -0.30352  -0.29470  -0.29416  -0.25715
 Alpha virt. eigenvalues --   -0.00404   0.00389   0.00480   0.00811   0.01800
 Alpha virt. eigenvalues --    0.02514   0.03117   0.03677   0.04380   0.04987
 Alpha virt. eigenvalues --    0.05416   0.05579   0.06295   0.07766   0.08574
 Alpha virt. eigenvalues --    0.08972   0.09168   0.09329   0.10122   0.10932
 Alpha virt. eigenvalues --    0.12417   0.12680   0.13390   0.13556   0.13680
 Alpha virt. eigenvalues --    0.13837   0.14424   0.14791   0.15590   0.15848
 Alpha virt. eigenvalues --    0.16058   0.16328   0.16401   0.16956   0.17746
 Alpha virt. eigenvalues --    0.18462   0.19168   0.19199   0.19728   0.19848
 Alpha virt. eigenvalues --    0.20058   0.20714   0.21041   0.21414   0.21642
 Alpha virt. eigenvalues --    0.22214   0.22365   0.22569   0.22956   0.23516
 Alpha virt. eigenvalues --    0.23550   0.24924   0.26391   0.27178   0.27411
 Alpha virt. eigenvalues --    0.28108   0.28581   0.29367   0.29378   0.30317
 Alpha virt. eigenvalues --    0.31723   0.31771   0.31990   0.32381   0.32947
 Alpha virt. eigenvalues --    0.32980   0.33297   0.33931   0.34054   0.34435
 Alpha virt. eigenvalues --    0.34710   0.35231   0.35412   0.35636   0.35816
 Alpha virt. eigenvalues --    0.36295   0.36457   0.36635   0.37276   0.38079
 Alpha virt. eigenvalues --    0.38447   0.38836   0.39020   0.39464   0.39642
 Alpha virt. eigenvalues --    0.40468   0.40508   0.42013   0.42337   0.42427
 Alpha virt. eigenvalues --    0.42658   0.43427   0.43479   0.44727   0.45278
 Alpha virt. eigenvalues --    0.45465   0.46315   0.46782   0.46886   0.47503
 Alpha virt. eigenvalues --    0.48241   0.48294   0.48614   0.49003   0.49129
 Alpha virt. eigenvalues --    0.49642   0.49880   0.50969   0.51204   0.51418
 Alpha virt. eigenvalues --    0.52065   0.52190   0.52525   0.52737   0.52872
 Alpha virt. eigenvalues --    0.53697   0.53840   0.54232   0.54738   0.54791
 Alpha virt. eigenvalues --    0.54901   0.55608   0.55652   0.55862   0.56334
 Alpha virt. eigenvalues --    0.56696   0.57483   0.58587   0.58721   0.58974
 Alpha virt. eigenvalues --    0.59074   0.59442   0.59980   0.60309   0.60519
 Alpha virt. eigenvalues --    0.61008   0.61440   0.61565   0.62749   0.63121
 Alpha virt. eigenvalues --    0.63534   0.63916   0.64472   0.65169   0.65340
 Alpha virt. eigenvalues --    0.65808   0.65913   0.66261   0.66692   0.66720
 Alpha virt. eigenvalues --    0.67133   0.67786   0.67988   0.68400   0.69019
 Alpha virt. eigenvalues --    0.69523   0.69617   0.69852   0.70750   0.70929
 Alpha virt. eigenvalues --    0.71203   0.71525   0.71668   0.71843   0.72274
 Alpha virt. eigenvalues --    0.72827   0.72857   0.72948   0.73079   0.73372
 Alpha virt. eigenvalues --    0.73506   0.73992   0.74197   0.74707   0.75102
 Alpha virt. eigenvalues --    0.75194   0.75392   0.75604   0.76088   0.76433
 Alpha virt. eigenvalues --    0.76608   0.77190   0.77648   0.77711   0.77813
 Alpha virt. eigenvalues --    0.78428   0.78996   0.79201   0.79451   0.79774
 Alpha virt. eigenvalues --    0.80254   0.80750   0.80962   0.81031   0.81221
 Alpha virt. eigenvalues --    0.81649   0.81689   0.82111   0.82521   0.82795
 Alpha virt. eigenvalues --    0.83521   0.83651   0.83733   0.84290   0.84482
 Alpha virt. eigenvalues --    0.85338   0.85466   0.85539   0.86136   0.86433
 Alpha virt. eigenvalues --    0.86515   0.87200   0.87911   0.88408   0.88879
 Alpha virt. eigenvalues --    0.89599   0.89911   0.90127   0.90198   0.90325
 Alpha virt. eigenvalues --    0.91163   0.91262   0.91686   0.92219   0.92873
 Alpha virt. eigenvalues --    0.93083   0.93729   0.94414   0.94564   0.94816
 Alpha virt. eigenvalues --    0.95741   0.95988   0.96541   0.97026   0.97346
 Alpha virt. eigenvalues --    0.98968   0.99747   0.99952   1.00849   1.01028
 Alpha virt. eigenvalues --    1.02014   1.02282   1.03519   1.03588   1.04603
 Alpha virt. eigenvalues --    1.05868   1.06322   1.06820   1.08517   1.08819
 Alpha virt. eigenvalues --    1.08940   1.09426   1.10693   1.11677   1.11972
 Alpha virt. eigenvalues --    1.12279   1.12858   1.13679   1.14887   1.15240
 Alpha virt. eigenvalues --    1.15642   1.16020   1.16925   1.17562   1.18504
 Alpha virt. eigenvalues --    1.19714   1.20281   1.20361   1.20905   1.21761
 Alpha virt. eigenvalues --    1.23199   1.23427   1.24121   1.24646   1.26291
 Alpha virt. eigenvalues --    1.26437   1.27001   1.27944   1.28355   1.28485
 Alpha virt. eigenvalues --    1.29322   1.29658   1.29933   1.30386   1.30482
 Alpha virt. eigenvalues --    1.30787   1.31207   1.31582   1.31697   1.31855
 Alpha virt. eigenvalues --    1.33159   1.33419   1.34325   1.34678   1.34784
 Alpha virt. eigenvalues --    1.35507   1.35972   1.35977   1.36278   1.36373
 Alpha virt. eigenvalues --    1.36620   1.37293   1.37977   1.39086   1.39728
 Alpha virt. eigenvalues --    1.40206   1.40439   1.42546   1.42857   1.44594
 Alpha virt. eigenvalues --    1.45295   1.46469   1.47939   1.48032   1.50528
 Alpha virt. eigenvalues --    1.51104   1.52279   1.53976   1.54676   1.55453
 Alpha virt. eigenvalues --    1.56780   1.57738   1.58736   1.59023   1.61728
 Alpha virt. eigenvalues --    1.62399   1.63864   1.65819   1.65954   1.66634
 Alpha virt. eigenvalues --    1.66767   1.68202   1.68601   1.69884   1.70716
 Alpha virt. eigenvalues --    1.72751   1.72841   1.73061   1.73440   1.73746
 Alpha virt. eigenvalues --    1.73882   1.75708   1.75814   1.76375   1.76864
 Alpha virt. eigenvalues --    1.77339   1.77735   1.77747   1.78372   1.78416
 Alpha virt. eigenvalues --    1.78993   1.79450   1.79854   1.80069   1.80208
 Alpha virt. eigenvalues --    1.81303   1.81344   1.81474   1.81545   1.82002
 Alpha virt. eigenvalues --    1.82139   1.82686   1.83373   1.83417   1.83584
 Alpha virt. eigenvalues --    1.83634   1.83857   1.84751   1.85041   1.85745
 Alpha virt. eigenvalues --    1.86194   1.86932   1.87443   1.88259   1.89067
 Alpha virt. eigenvalues --    1.89224   1.89710   1.89741   1.90446   1.90677
 Alpha virt. eigenvalues --    1.91718   1.92254   1.92426   1.93334   1.93892
 Alpha virt. eigenvalues --    1.94276   1.94985   1.95105   1.95890   1.97785
 Alpha virt. eigenvalues --    1.98903   1.99152   1.99635   2.00174   2.00679
 Alpha virt. eigenvalues --    2.00701   2.01443   2.01517   2.02146   2.02329
 Alpha virt. eigenvalues --    2.02614   2.02709   2.02829   2.03891   2.04170
 Alpha virt. eigenvalues --    2.04679   2.05006   2.05696   2.06029   2.06776
 Alpha virt. eigenvalues --    2.07012   2.09034   2.09097   2.09323   2.10340
 Alpha virt. eigenvalues --    2.11015   2.11736   2.12049   2.12184   2.15564
 Alpha virt. eigenvalues --    2.15795   2.16893   2.17633   2.18538   2.18913
 Alpha virt. eigenvalues --    2.19486   2.20164   2.20442   2.21127   2.21306
 Alpha virt. eigenvalues --    2.21664   2.23252   2.23646   2.24781   2.26182
 Alpha virt. eigenvalues --    2.26563   2.28970   2.29498   2.29737   2.30218
 Alpha virt. eigenvalues --    2.30369   2.31257   2.31328   2.31823   2.32999
 Alpha virt. eigenvalues --    2.33465   2.33675   2.34856   2.34893   2.35427
 Alpha virt. eigenvalues --    2.37191   2.37433   2.37736   2.38087   2.38619
 Alpha virt. eigenvalues --    2.38834   2.39367   2.39825   2.40014   2.40550
 Alpha virt. eigenvalues --    2.41138   2.41831   2.41981   2.42111   2.45418
 Alpha virt. eigenvalues --    2.46566   2.47974   2.49091   2.49712   2.49788
 Alpha virt. eigenvalues --    2.52737   2.53192   2.56383   2.56582   2.58743
 Alpha virt. eigenvalues --    2.59018   2.59300   2.60705   2.62262   2.66059
 Alpha virt. eigenvalues --    2.66879   2.67361   2.67838   2.68017   2.68449
 Alpha virt. eigenvalues --    2.69347   2.69565   2.70612   2.71117   2.71666
 Alpha virt. eigenvalues --    2.71682   2.71771   2.72135   2.72225   2.72329
 Alpha virt. eigenvalues --    2.72410   2.75930   2.76240   2.76774   2.79029
 Alpha virt. eigenvalues --    2.79506   2.79559   2.79831   2.80214   2.80833
 Alpha virt. eigenvalues --    2.80992   2.82908   2.83855   2.84717   2.86079
 Alpha virt. eigenvalues --    2.86956   2.87404   2.88870   2.89811   2.91437
 Alpha virt. eigenvalues --    2.92448   2.92789   2.94524   2.98816   2.99264
 Alpha virt. eigenvalues --    2.99488   3.01835   3.03243   3.04075   3.04740
 Alpha virt. eigenvalues --    3.04861   3.06667   3.07952   3.09081   3.09749
 Alpha virt. eigenvalues --    3.10516   3.15153   3.15739   3.16238   3.20229
 Alpha virt. eigenvalues --    3.20346   3.21551   3.22364   3.23652   3.23680
 Alpha virt. eigenvalues --    3.25462   3.26418   3.30926   3.31369   3.33623
 Alpha virt. eigenvalues --    3.37863   3.39682   3.40289   3.49705   3.51390
 Alpha virt. eigenvalues --    3.52760   3.55389   3.57319   3.58383   3.59989
 Alpha virt. eigenvalues --    3.62407   3.63119   3.64068   3.64630   3.66521
 Alpha virt. eigenvalues --    3.67589   3.70155   3.70400   3.71057   3.76598
 Alpha virt. eigenvalues --    3.76935   3.77334   3.84736   3.85301   3.91274
 Alpha virt. eigenvalues --    3.95817   3.96017   4.01450   4.02906   4.13468
          Condensed to atoms (all electrons):
 Mulliken charges:
               1
     1  Mn  -0.653439
     2  C    0.321999
     3  O   -0.084543
     4  C    0.323149
     5  O   -0.084999
     6  C    0.312136
     7  N   -0.211836
     8  C   -0.040847
     9  C    0.059389
    10  C    0.161853
    11  H    0.061591
    12  H    0.055289
    13  N    0.111271
    14  C   -0.006487
    15  C   -0.164877
    16  C    0.026523
    17  C   -0.025057
    18  C    0.027464
    19  H    0.049751
    20  H    0.068856
    21  N   -0.212433
    22  C   -0.040892
    23  C    0.058329
    24  H    0.061718
    25  C    0.104704
    26  H    0.083335
    27  C    0.104143
    28  H    0.083841
    29  H    0.054003
    30  O   -0.096556
    31  S    0.089715
    32  S    0.087901
    33  C   -0.093264
    34  C    0.000042
    35  C   -0.019231
    36  C   -0.017708
    37  C   -0.004507
    38  C   -0.085754
    39  C   -0.047341
    40  H    0.040809
    41  H    0.052094
    42  H    0.042486
    43  C   -0.048970
    44  C   -0.084456
    45  C   -0.004501
    46  C   -0.017756
    47  C   -0.020495
    48  C    0.001553
    49  H    0.042486
    50  H    0.052071
    51  H    0.040965
    52  C   -0.091583
    53  H    0.055383
    54  C    0.161897
    55  H    0.043587
    56  H    0.043694
    57  C   -0.004441
    58  C   -0.022873
    59  H    0.055532
    60  H    0.056655
    61  Br  -0.811372
 Sum of Mulliken charges =  -0.00000
 Mulliken charges with hydrogens summed into heavy atoms:
               1
     1  Mn  -0.653439
     2  C    0.321999
     3  O   -0.084543
     4  C    0.323149
     5  O   -0.084999
     6  C    0.312136
     7  N   -0.211836
     8  C    0.020743
     9  C    0.114677
    10  C    0.205548
    13  N    0.111271
    14  C   -0.006487
    15  C   -0.164877
    16  C    0.076274
    17  C    0.028946
    18  C    0.096320
    21  N   -0.212433
    22  C    0.020826
    23  C    0.113711
    25  C    0.188039
    27  C    0.187985
    30  O   -0.096556
    31  S    0.089715
    32  S    0.087901
    33  C   -0.093264
    34  C    0.000042
    35  C    0.021578
    36  C    0.034387
    37  C    0.037980
    38  C   -0.085754
    39  C   -0.047341
    43  C   -0.048970
    44  C   -0.084456
    45  C    0.037985
    46  C    0.034315
    47  C    0.020470
    48  C    0.001553
    52  C   -0.091583
    54  C    0.205484
    57  C    0.052214
    58  C    0.032660
    61  Br  -0.811372
 Electronic spatial extent (au):  <R**2>=          25641.9349
 Charge=             -0.0000 electrons
 Dipole moment (field-independent basis, Debye):
    X=            -15.1326    Y=             14.1636    Z=             -0.7800  Tot=             20.7415
 Quadrupole moment (field-independent basis, Debye-Ang):
   XX=           -311.5190   YY=           -271.6655   ZZ=           -228.8999
   XY=             67.2657   XZ=             -4.6295   YZ=              2.7405
 Traceless Quadrupole moment (field-independent basis, Debye-Ang):
   XX=            -40.8242   YY=             -0.9707   ZZ=             41.7949
   XY=             67.2657   XZ=             -4.6295   YZ=              2.7405
 Octapole moment (field-independent basis, Debye-Ang**2):
  XXX=           -278.7498  YYY=            134.3480  ZZZ=              0.9057  XYY=            121.8732
  XXY=            197.5468  XXZ=            -16.6239  XZZ=            -70.9057  YZZ=             -1.9102
  YYZ=             -6.0435  XYZ=            -13.5320
 Hexadecapole moment (field-independent basis, Debye-Ang**3):
 XXXX=         -20659.8981 YYYY=          -6155.9815 ZZZZ=          -5853.7915 XXXY=           1498.0173
 XXXZ=           -127.7738 YYYX=            496.2608 YYYZ=            -51.7218 ZZZX=            -12.6150
 ZZZY=             54.2977 XXYY=          -4459.2024 XXZZ=          -3989.4777 YYZZ=          -2357.8826
 XXYZ=              6.8936 YYXZ=            -25.2287 ZZXY=             70.9512
 N-N= 6.629624744518D+03 E-N=-2.780209543441D+04  KE= 6.117443532211D+03
 PrsmSu:  requested number of processors reduced to:  11 ShMem   1 Linda.
 D1PCM: PCM CHGder 1st derivatives, ID1Alg=3 FixD1E=F DoIter=F DoCFld=F I1PDM=0.
 CoulSu:  requested number of processors reduced to:   9 ShMem   1 Linda.
 CoulSu:  requested number of processors reduced to:  10 ShMem   1 Linda.
 Calling FoFJK, ICntrl=      2127 FMM=T ISym2X=0 I1Cent= 0 IOpClX= 0 NMat=1 NMatS=1 NMatT=0.
 ***** Axes restored to original set *****
 -------------------------------------------------------------------
 Center     Atomic                   Forces (Hartrees/Bohr)
 Number     Number              X              Y              Z
 -------------------------------------------------------------------
      1       25          -0.016837954   -0.045686970    0.006356124
      2        6           0.004707622   -0.003613574    0.002624153
      3        8          -0.003788238    0.001869277   -0.002100909
      4        6           0.000286428   -0.003394182   -0.005963237
      5        8          -0.000161606    0.001678359    0.004549187
      6        6           0.000227032   -0.003333515    0.000097749
      7        7          -0.000744928    0.000031051   -0.000731427
      8        6          -0.000314588    0.000618105   -0.000432394
      9        6          -0.000349149   -0.000198046    0.000061791
     10        6           0.000146326   -0.000498459    0.000415791
     11        1           0.000331100   -0.000656848    0.000348965
     12        1           0.000722296    0.000118468    0.000114267
     13        7          -0.002134711    0.002078712    0.001408400
     14        6          -0.001558002    0.002385981    0.001231728
     15        6           0.001182289   -0.001772526   -0.000959153
     16        6          -0.000506373   -0.000954584    0.000167728
     17        6          -0.000582473   -0.000515309    0.000441809
     18        6           0.000759209    0.000739530   -0.000616478
     19        1          -0.000000636    0.000759676    0.000057018
     20        1          -0.000734609   -0.000024661    0.000460562
     21        7           0.000388178   -0.000181540    0.001123783
     22        6           0.000171982    0.000514224    0.000449243
     23        6           0.000065341   -0.000212368    0.000389167
     24        1          -0.000180729   -0.000623045   -0.000570951
     25        6           0.000052925    0.000918141   -0.000152686
     26        1          -0.000215412   -0.000920108    0.000270515
     27        6           0.000334272    0.001011076    0.000176284
     28        1          -0.000541412   -0.000738143   -0.000166712
     29        1           0.000679706    0.000172179   -0.000420210
     30        8          -0.002022419    0.003095106    0.001192108
     31       16           0.000202893    0.001191873   -0.000086894
     32       16          -0.000846357   -0.000579695    0.000268255
     33        6          -0.000278712   -0.001441100    0.000414424
     34        6           0.000323615    0.000868678   -0.000075616
     35        6          -0.000016744    0.000503607   -0.000645302
     36        6          -0.000215676   -0.000351478   -0.000766055
     37        6          -0.000305089   -0.000552621   -0.000124655
     38        6          -0.000004503    0.000069453   -0.000286335
     39        6           0.000113186   -0.000302091   -0.000721169
     40        1          -0.000086487   -0.000351355    0.000530247
     41        1           0.000249567    0.000459468    0.000565409
     42        1           0.000232496    0.000708229   -0.000007537
     43        6           0.000454729   -0.000496847    0.000378625
     44        6           0.000245677    0.000135986    0.000257416
     45        6           0.000105994   -0.000585223    0.000206832
     46        6           0.000599577   -0.000350611    0.000611414
     47        6           0.000494783    0.000543360    0.000250743
     48        6           0.000258137    0.000948225   -0.000153484
     49        1           0.000237084    0.000703076   -0.000148573
     50        1          -0.000314054    0.000493180   -0.000479286
     51        1          -0.000529096   -0.000284954   -0.000404446
     52        6          -0.000638559   -0.001463655   -0.000054450
     53        1           0.000163539    0.000190870   -0.000703041
[...]
   D24        0.89619  -0.00014   0.00000   0.00848   0.00848   0.90467
   D25       -0.97953   0.00076   0.00000  -0.01468  -0.01472  -0.99425
   D26        2.08993   0.00101   0.00000  -0.01001  -0.01006   2.07987
   D27       -0.11743  -0.00010   0.00000  -0.01801  -0.01801  -0.13544
   D28        2.95204   0.00016   0.00000  -0.01335  -0.01335   2.93869
   D29        2.96553   0.00031   0.00000   0.00305   0.00305   2.96858
   D30       -0.18168   0.00020   0.00000   0.00080   0.00080  -0.18088
   D31       -0.08165  -0.00003   0.00000   0.00278   0.00278  -0.07887
   D32        3.05433  -0.00014   0.00000   0.00054   0.00053   3.05486
   D33       -3.00435  -0.00022   0.00000  -0.00313  -0.00313  -3.00748
   D34        0.11827  -0.00016   0.00000  -0.00405  -0.00406   0.11421
   D35        0.04612   0.00010   0.00000  -0.00262  -0.00262   0.04350
   D36       -3.11444   0.00017   0.00000  -0.00355  -0.00354  -3.11798
   D37       -0.01690  -0.00001   0.00000  -0.00038  -0.00037  -0.01727
   D38        3.11881  -0.00004   0.00000   0.00295   0.00295   3.12176
   D39        3.10866   0.00004   0.00000  -0.00047  -0.00047   3.10819
   D40       -0.03882   0.00001   0.00000   0.00286   0.00285  -0.03597
   D41        0.01285  -0.00010   0.00000  -0.00017  -0.00017   0.01268
   D42       -3.10900  -0.00017   0.00000   0.00078   0.00078  -3.10823
   D43        3.13868  -0.00005   0.00000  -0.00027  -0.00027   3.13841
   D44        0.01682  -0.00012   0.00000   0.00068   0.00068   0.01751
   D45        0.00704   0.00006   0.00000  -0.00270  -0.00269   0.00435
   D46       -3.12943   0.00021   0.00000   0.00088   0.00089  -3.12854
   D47       -3.14041   0.00003   0.00000   0.00062   0.00062  -3.13979
   D48        0.00630   0.00018   0.00000   0.00420   0.00420   0.01051
   D49        0.05551  -0.00004   0.00000  -0.00011  -0.00012   0.05539
   D50       -3.09103  -0.00019   0.00000  -0.00357  -0.00358  -3.09462
   D51       -3.08039   0.00007   0.00000   0.00216   0.00216  -3.07823
   D52        0.05625  -0.00008   0.00000  -0.00130  -0.00131   0.05494
   D53       -3.12799  -0.00006   0.00000  -0.00015   0.00008  -3.12791
   D54        0.01567  -0.00006   0.00000  -0.00145  -0.00122   0.01444
   D55       -0.00742   0.00008   0.00000  -0.00135  -0.00148  -0.00890
   D56        3.13623   0.00009   0.00000  -0.00265  -0.00279   3.13345
   D57       -0.00957  -0.00006   0.00000   0.00297   0.00264  -0.00692
   D58        3.12713   0.00005   0.00000   0.00063   0.00039   3.12751
   D59       -3.12950  -0.00020   0.00000   0.00410   0.00415  -3.12535
   D60        0.00720  -0.00009   0.00000   0.00176   0.00189   0.00909
   D61       -3.13939   0.00001   0.00000  -0.00007  -0.00003  -3.13942
   D62        0.00217  -0.00000   0.00000   0.00062   0.00068   0.00285
   D63        0.00013   0.00000   0.00000   0.00125   0.00128   0.00141
   D64       -3.14149  -0.00001   0.00000   0.00193   0.00199  -3.13950
   D65        0.00322  -0.00007   0.00000  -0.00032  -0.00031   0.00292
   D66       -3.14059  -0.00000   0.00000   0.00003   0.00002  -3.14057
   D67       -3.13840  -0.00009   0.00000   0.00037   0.00041  -3.13799
   D68        0.00097  -0.00002   0.00000   0.00072   0.00074   0.00171
   D69       -0.84914  -0.00034   0.00000   0.03076   0.03126  -0.81788
   D70        0.12568   0.00037   0.00000  -0.00791  -0.00836   0.11732
   D71        2.29742  -0.00045   0.00000   0.03314   0.03356   2.33098
   D72       -3.01094   0.00025   0.00000  -0.00553  -0.00607  -3.01700
   D73       -0.00175   0.00001   0.00000  -0.00145  -0.00150  -0.00325
   D74        3.14119  -0.00002   0.00000  -0.00076  -0.00081   3.14038
   D75        3.13490   0.00013   0.00000  -0.00381  -0.00378   3.13113
   D76       -0.00534   0.00010   0.00000  -0.00312  -0.00309  -0.00843
   D77        0.95200  -0.00013   0.00000   0.03430   0.03452   0.98653
   D78        3.04440   0.00016   0.00000   0.00253   0.00251   3.04691
   D79       -0.07599   0.00008   0.00000   0.00211   0.00211  -0.07388
   D80       -0.02886  -0.00008   0.00000  -0.00189  -0.00191  -0.03076
   D81        3.13394  -0.00016   0.00000  -0.00231  -0.00230   3.13163
   D82       -3.01421  -0.00018   0.00000  -0.00168  -0.00166  -3.01587
   D83        0.13853  -0.00011   0.00000  -0.00137  -0.00137   0.13716
   D84        0.05614   0.00009   0.00000   0.00293   0.00295   0.05909
   D85       -3.07431   0.00016   0.00000   0.00324   0.00324  -3.07107
   D86       -3.13087   0.00011   0.00000   0.00020   0.00016  -3.13070
   D87        0.00950   0.00003   0.00000   0.00051   0.00048   0.00998
   D88        0.02453   0.00010   0.00000   0.00153   0.00154   0.02606
   D89       -3.11829   0.00002   0.00000   0.00184   0.00185  -3.11643
   D90       -2.02808  -0.00054   0.00000  -0.00515  -0.00521  -2.03329
   D91        1.09968  -0.00053   0.00000  -0.00648  -0.00659   1.09308
   D92       -0.01058  -0.00001   0.00000  -0.00027  -0.00027  -0.01085
   D93        3.10903   0.00008   0.00000   0.00016   0.00014   3.10916
   D94       -3.13865  -0.00001   0.00000   0.00104   0.00109  -3.13756
   D95       -0.01904   0.00007   0.00000   0.00147   0.00150  -0.01755
   D96        3.09931  -0.00004   0.00000   0.00617   0.00618   3.10549
   D97       -0.00015  -0.00010   0.00000  -0.00063  -0.00063  -0.00079
   D98       -0.04106   0.00004   0.00000   0.00586   0.00586  -0.03520
   D99       -3.14053  -0.00002   0.00000  -0.00093  -0.00095  -3.14148
   D100      -2.41362   0.00014   0.00000  -0.00362  -0.00361  -2.41724
   D101       0.79928   0.00011   0.00000  -0.00121  -0.00122   0.79806
   D102      -0.80926  -0.00006   0.00000   0.00412   0.00412  -0.80515
   D103       2.41398  -0.00018   0.00000   0.00131   0.00131   2.41529
   D104       2.43954  -0.00014   0.00000   0.00178   0.00178   2.44132
   D105      -0.75451  -0.00011   0.00000   0.00067   0.00067  -0.75384
   D106       0.74391   0.00017   0.00000   0.00246   0.00246   0.74637
   D107      -2.44888   0.00021   0.00000   0.00217   0.00216  -2.44672
   D108       1.14004  -0.00046   0.00000  -0.01591  -0.01592   1.12411
   D109      -2.00516  -0.00035   0.00000  -0.01434  -0.01436  -2.01953
   D110      -1.99634  -0.00031   0.00000  -0.01227  -0.01228  -2.00861
   D111       1.14165  -0.00020   0.00000  -0.01069  -0.01071   1.13093
   D112       3.10272   0.00014   0.00000   0.00169   0.00169   3.10441
   D113      -0.01579   0.00010   0.00000   0.00129   0.00128  -0.01451
   D114      -0.03536   0.00004   0.00000   0.00017   0.00017  -0.03519
   D115       3.12932  -0.00001   0.00000  -0.00024  -0.00024   3.12908
   D116       0.11140  -0.00018   0.00000   0.00036   0.00036   0.11177
   D117      -3.10183  -0.00015   0.00000  -0.00204  -0.00203  -3.10386
   D118      -3.03378  -0.00007   0.00000   0.00192   0.00192  -3.03186
   D119       0.03618  -0.00004   0.00000  -0.00048  -0.00048   0.03570
   D120      -0.00110  -0.00000   0.00000   0.00018   0.00017  -0.00092
   D121      -3.12493  -0.00003   0.00000  -0.00057  -0.00057  -3.12549
   D122       3.11715   0.00004   0.00000   0.00059   0.00059   3.11774
   D123      -0.00667   0.00002   0.00000  -0.00016  -0.00016  -0.00683
   D124       0.03691  -0.00003   0.00000  -0.00020  -0.00020   0.03671
   D125      -3.11543  -0.00002   0.00000  -0.00112  -0.00112  -3.11655
   D126      -3.12242  -0.00000   0.00000   0.00054   0.00053  -3.12188
   D127       0.00843   0.00000   0.00000  -0.00038  -0.00038   0.00805
   D128       3.05368   0.00006   0.00000  -0.00121  -0.00120   3.05247
   D129      -0.03581   0.00003   0.00000  -0.00011  -0.00011  -0.03592
   D130      -0.07726   0.00006   0.00000  -0.00030  -0.00030  -0.07757
   D131       3.11643   0.00002   0.00000   0.00080   0.00080   3.11723
   D132      -0.01873   0.00000   0.00000  -0.00080  -0.00079  -0.01953
   D133      -3.08932  -0.00004   0.00000   0.00159   0.00158  -3.08774
   D134       3.06962   0.00004   0.00000  -0.00193  -0.00192   3.06770
   D135      -0.00097   0.00001   0.00000   0.00046   0.00046  -0.00052
   D136       0.03825  -0.00010   0.00000  -0.00475  -0.00476   0.03350
   D137      -3.05124  -0.00014   0.00000  -0.00448  -0.00447  -3.05572
   D138       3.09871   0.00001   0.00000  -0.00203  -0.00204   3.09667
   D139       0.00921  -0.00003   0.00000  -0.00175  -0.00176   0.00746
   D140       3.01292   0.00018   0.00000   0.00538   0.00537   3.01829
   D141      -0.13707   0.00026   0.00000   0.00672   0.00672  -0.13035
   D142      -0.04654   0.00006   0.00000   0.00253   0.00253  -0.04401
   D143       3.08665   0.00015   0.00000   0.00387   0.00388   3.09053
   D144      -3.05525  -0.00006   0.00000   0.00017   0.00018  -3.05507
   D145       0.07441  -0.00003   0.00000   0.00080   0.00081   0.07522
   D146       0.03551  -0.00002   0.00000  -0.00012  -0.00012   0.03539
   D147      -3.11801   0.00001   0.00000   0.00051   0.00051  -3.11750
   D148      -0.04222   0.00004   0.00000   0.00118   0.00118  -0.04104
   D149       3.12031   0.00003   0.00000   0.00060   0.00060   3.12091
   D150       3.11142   0.00001   0.00000   0.00055   0.00055   3.11197
   D151      -0.00924  -0.00000   0.00000  -0.00004  -0.00004  -0.00928
   D152       0.00409  -0.00001   0.00000  -0.00036  -0.00036   0.00372
   D153      -3.10905  -0.00004   0.00000  -0.00089  -0.00089  -3.10993
   D154       3.12472   0.00000   0.00000   0.00022   0.00022   3.12494
   D155       0.01159  -0.00002   0.00000  -0.00030  -0.00031   0.01128
   D156       0.04022  -0.00005   0.00000  -0.00150  -0.00150   0.03872
   D157      -3.09325  -0.00013   0.00000  -0.00278  -0.00279  -3.09604
   D158      -3.12955  -0.00002   0.00000  -0.00099  -0.00099  -3.13053
   D159       0.02017  -0.00011   0.00000  -0.00227  -0.00227   0.01789
   D160       2.14088  -0.00011   0.00000  -0.01219  -0.01222   2.12866
   D161      -1.04377  -0.00005   0.00000  -0.00525  -0.00526  -1.04903
   D162      -1.00912  -0.00002   0.00000  -0.01086  -0.01088  -1.02000
   D163       2.08941   0.00004   0.00000  -0.00392  -0.00392   2.08550
   D164      -0.04195  -0.00000   0.00000  -0.00167  -0.00168  -0.04363
   D165       3.08836  -0.00007   0.00000  -0.00198  -0.00197   3.08639
   D166       3.14057  -0.00005   0.00000  -0.00830  -0.00832   3.13225
   D167      -0.01231  -0.00012   0.00000  -0.00860  -0.00861  -0.02091
   D168      -0.00344   0.00007   0.00000   0.00075   0.00072  -0.00272
   D169       3.13679   0.00010   0.00000   0.00005   0.00003   3.13683
   D170       3.14037  -0.00000   0.00000   0.00039   0.00039   3.14077
   D171      -0.00258   0.00003   0.00000  -0.00030  -0.00029  -0.00287
         Item               Value     Threshold  Converged?
 Maximum Force            0.004793     0.000450     NO 
 RMS     Force            0.000359     0.000300     NO 
 Maximum Displacement     0.254931     0.001800     NO 
 RMS     Displacement     0.041652     0.001200     NO 
 Predicted change in Energy= 4.207777D-04
 GradGradGradGradGradGradGradGradGradGradGradGradGradGradGradGradGradGrad

 Stoichiometry    C32H19BrMnN3O3S2
 Framework group  C1[X(C32H19BrMnN3O3S2)]
 Deg. of freedom   177
 Full point group                 C1      NOp   1
 Largest Abelian subgroup         C1      NOp   1
 Largest concise Abelian subgroup C1      NOp   1
                         Standard orientation:                         
 ---------------------------------------------------------------------
 Center     Atomic      Atomic             Coordinates (Angstroms)
 Number     Number       Type             X           Y           Z
 ---------------------------------------------------------------------
      1         25           0        2.267594   -1.433672   -0.432820
      2          6           0        3.381546   -2.489568    0.592226
      3          8           0        3.992745   -3.228859    1.210642
      4          6           0        3.377618   -1.609796   -1.894700
      5          8           0        3.991399   -1.804711   -2.836827
      6          6           0        1.373796   -2.890167   -0.943310
      7          7           0        1.057941   -0.134721   -1.633463
      8          6           0        0.863076    1.938101   -2.818485
      9          6           0       -0.516270    1.773541   -2.923393
     10          6           0       -0.253694   -0.314145   -1.796685
     11          1           0        1.360639    2.817385   -3.227492
     12          1           0       -1.134767    2.533204   -3.406061
     13          7           0        2.426633    1.162903    0.544532
     14          6           0        1.954891    2.198685    0.748977
     15          6           0        1.281519    3.447238    0.967966
     16          6           0       -0.112314    3.489940    0.811246
     17          6           0       -0.784858    4.692240    1.002068
     18          6           0        1.999596    4.603944    1.303394
     19          1           0       -0.657152    2.583554    0.542595
     20          1           0        3.084401    4.559967    1.407235
     21          7           0        1.034866   -1.190724    1.308555
     22          6           0        0.854667   -0.478898    3.588288
     23          6           0       -0.530280   -0.621693    3.547441
     24          1           0        1.362985   -0.133683    4.488489
     25          6           0        1.609873    0.970708   -2.163484
     26          1           0        2.687313    1.087648   -2.038741
     27          6           0        1.597339   -0.765627    2.453126
     28          1           0        2.680166   -0.633176    2.449310
     29          1           0       -1.869105    4.728613    0.882997
     30          8           0        0.781675   -3.817851   -1.270110
     31         16           0       -2.668413    0.639353    0.273418
     32         16           0       -5.764758   -0.082455   -0.001127
     33          6           0       -1.097294    0.617704   -2.403241
     34          6           0       -2.558685    0.345153   -2.481938
     35          6           0       -3.160248    0.168545   -3.732592
     36          6           0       -4.515843   -0.131191   -3.837497
     37          6           0       -5.293189   -0.260502   -2.690463
     38          6           0       -4.719513   -0.045391   -1.435059
     39          6           0       -3.355499    0.257516   -1.324506
     40          1           0       -2.545608    0.247995   -4.631608
     41          1           0       -4.967332   -0.280895   -4.819626
     42          1           0       -6.351493   -0.518308   -2.763524
     43          6           0       -3.373495   -0.649236    1.280307
     44          6           0       -4.739808   -0.941680    1.166207
     45          6           0       -5.334304   -1.876096    2.017448
     46          6           0       -4.574968   -2.487448    3.010097
     47          6           0       -3.216375   -2.205491    3.122998
     48          6           0       -2.592176   -1.305965    2.251232
     49          1           0       -6.394118   -2.112386    1.904466
     50          1           0       -5.042009   -3.203244    3.688533
     51          1           0       -2.615812   -2.708519    3.883656
     52          6           0       -1.125625   -1.079965    2.372516
     53          1           0       -1.142647   -0.380667    4.418981
     54          6           0       -0.286753   -1.370505    1.294780
     55          1           0       -0.726367   -1.778704    0.386673
     56          1           0       -0.679017   -1.250287   -1.437674
     57          6           0       -0.073796    5.844040    1.343070
     58          6           0        1.313606    5.799869    1.491491
     59          1           0        1.866053    6.703692    1.753807
     60          1           0       -0.605471    6.785865    1.492984
     61         35           0        5.537496   -0.226017   -0.011295
 ---------------------------------------------------------------------
 Rotational constants (GHZ):           0.0937166           0.0501301           0.0468028
 Basis read from rwf:  (5D, 7F)
 There are   800 symmetry adapted cartesian basis functions of A   symmetry.
 There are   749 symmetry adapted basis functions of A   symmetry.
   749 basis functions,  1349 primitive gaussians,   800 cartesian basis functions
   174 alpha electrons      174 beta electrons
       nuclear repulsion energy      6621.6046168070 Hartrees.
 NAtoms=   61 NActive=   61 NUniq=   61 SFac= 1.00D+00 NAtFMM=   60 NAOKFM=T Big=T
 Integral buffers will be    131072 words long.
 Raffenetti 2 integral format.
 Two-electron integral symmetry is turned on.
 Nuclear repulsion after empirical dispersion term =     6621.5402120538 Hartrees.
 ------------------------------------------------------------------------------
 Polarizable Continuum Model (PCM)
 =================================
 Model                : PCM.
 Atomic radii         : UFF (Universal Force Field).
 Polarization charges : Total charges.
 Charge compensation  : None.
 Solution method      : On-the-fly selection.
 Cavity type          : Scaled VdW (van der Waals Surface) (Alpha=1.100).
 Cavity algorithm     : GePol (No added spheres)
                        Default sphere list used, NSphG=   61.
                        Lebedev-Laikov grids with approx.  5.0 points / Ang**2.
                        Smoothing algorithm: York/Karplus (Gamma=1.0000).
                        Polarization charges: spherical gaussians, with
                                              point-specific exponents (IZeta= 3).
                        Self-potential: point-specific (ISelfS= 7).
                        Self-field    : sphere-specific E.n sum rule (ISelfD= 2).
 1st derivatives      : Analytical E(r).r(x)/FMM algorithm (CHGder, D1EAlg=3).
                        Cavity 1st derivative terms included.
 Solvent              : TetraHydroFuran, Eps=   7.425700 Eps(inf)=   1.974025
 ------------------------------------------------------------------------------
 One-electron integrals computed using PRISM.
 PrsmSu:  requested number of processors reduced to:  11 ShMem   1 Linda.
 NBasis=   749 RedAO= T EigKep=  2.26D-04  NBF=   749
 NBsUse=   749 1.00D-06 EigRej= -1.00D+00 NBFU=   749
 Initial guess from the checkpoint file:  "checkpoint.chk"
 B after Tr=     0.000000   -0.000000   -0.000000
         Rot=    0.999836   -0.018080    0.000400    0.001024 Ang=  -2.08 deg.
 ExpMin= 3.93D-02 ExpMax= 2.77D+05 ExpMxC= 1.70D+04 IAcc=3 IRadAn=         5 AccDes= 0.00D+00
 Harris functional with IExCor= 4639 and IRadAn=       5 diagonalized for initial guess.
 HarFok:  IExCor= 4639 AccDes= 0.00D+00 IRadAn=         5 IDoV= 1 UseB2=F ITyADJ=14
 ICtDFT=  3500011 ScaDFX=  1.000000  1.000000  1.000000  1.000000
 FoFCou: FMM=F IPFlag=           0 FMFlag=      100000 FMFlg1=        2001
         NFxFlg=           0 DoJE=T BraDBF=F KetDBF=T FulRan=T
         wScrn=  0.000000 ICntrl=       500 IOpCl=  0 I1Cent=   200000004 NGrid=           0
         NMat0=    1 NMatS0=      1 NMatT0=    0 NMatD0=    1 NMtDS0=    0 NMtDT0=    0
 Petite list used in FoFCou.
 Requested convergence on RMS density matrix=1.00D-08 within 128 cycles.
 Requested convergence on MAX density matrix=1.00D-06.
 Requested convergence on             energy=1.00D-06.
 No special actions if energy rises.
 CoulSu:  requested number of processors reduced to:   9 ShMem   1 Linda.
 Inv3:  Mode=1 IEnd=    71150700.
 Iteration    1 A*A^-1 deviation from unit magnitude is 3.55D-15 for   4344.
 Iteration    1 A*A^-1 deviation from orthogonality  is 2.03D-15 for   2328   1942.
 Iteration    1 A^-1*A deviation from unit magnitude is 4.00D-15 for   4600.
 Iteration    1 A^-1*A deviation from orthogonality  is 1.88D-15 for   3161   3138.
 CoulSu:  requested number of processors reduced to:   9 ShMem   1 Linda.
 CoulSu:  requested number of processors reduced to:   9 ShMem   1 Linda.
