 Entering Gaussian System, Link 0=g16
 Initial command:
 /home1/apps/gaussian/16rA.03/g16/l1.exe "/tmp/Gau-55794.inp" -scrdir="/tmp/"
 Entering Link 1 = /home1/apps/gaussian/16rA.03/g16/l1.exe PID=     55796.
  
 Copyright (c) 1988,1990,1992,1993,1995,1998,2003,2009,2016,
            Gaussian, Inc.  All Rights Reserved.
  
 This is part of the Gaussian(R) 16 program.  It is based on
 the Gaussian(R) 09 system (copyright 2009, Gaussian, Inc.),
 the Gaussian(R) 03 system (copyright 2003, Gaussian, Inc.),
 the Gaussian(R) 98 system (copyright 1998, Gaussian, Inc.),
 the Gaussian(R) 94 system (copyright 1995, Gaussian, Inc.),
 the Gaussian 92(TM) system (copyright 1992, Gaussian, Inc.),
 the Gaussian 90(TM) system (copyright 1990, Gaussian, Inc.),
 the Gaussian 88(TM) system (copyright 1988, Gaussian, Inc.),
 the Gaussian 86(TM) system (copyright 1986, Carnegie Mellon
 University), and the Gaussian 82(TM) system (copyright 1983,
 Carnegie Mellon University). Gaussian is a federally registered
 trademark of Gaussian, Inc.
  
 This software contains proprietary and confidential information,
 including trade secrets, belonging to Gaussian, Inc.
  
 This software is provided under written license and may be
 used, copied, transmitted, or stored only in accord with that
 written license.
  
 The following legend is applicable only to US Government
 contracts under FAR:
  
                    RESTRICTED RIGHTS LEGEND
  
 Use, reproduction and disclosure by the US Government is
 subject to restrictions as set forth in subparagraphs (a)
 and (c) of the Commercial Computer Software - Restricted
 Rights clause in FAR 52.227-19.
  
 Gaussian, Inc.
 340 Quinnipiac St., Bldg. 40, Wallingford CT 06492
  
  
 ---------------------------------------------------------------
 Warning -- This program may not be used in any manner that
 competes with the business of Gaussian, Inc. or will provide
 assistance to any competitor of Gaussian, Inc.  The licensee
 of this program is prohibited from giving any competitor of
 Gaussian, Inc. access to this program.  By using this program,
 the user acknowledges that Gaussian, Inc. is engaged in the
 business of creating and licensing software in the field of
 computational chemistry and represents and warrants to the
 licensee that it is not a competitor of Gaussian, Inc. and that
 it will not use this program in any manner prohibited above.
 ---------------------------------------------------------------
  

 Cite this work as:
 Gaussian 16, Revision A.03,
 M. J. Frisch, G. W. Trucks, H. B. Schlegel, G. E. Scuseria, 
 M. A. Robb, J. R. Cheeseman, G. Scalmani, V. Barone, 
 G. A. Petersson, H. Nakatsuji, X. Li, M. Caricato, A. V. Marenich, 
 J. Bloino, B. G. Janesko, R. Gomperts, B. Mennucci, H. P. Hratchian, 
 J. V. Ortiz, A. F. Izmaylov, J. L. Sonnenberg, D. Williams-Young, 
 F. Ding, F. Lipparini, F. Egidi, J. Goings, B. Peng, A. Petrone, 
 T. Henderson, D. Ranasinghe, V. G. Zakrzewski, J. Gao, N. Rega, 
 G. Zheng, W. Liang, M. Hada, M. Ehara, K. Toyota, R. Fukuda, 
 J. Hasegawa, M. Ishida, T. Nakajima, Y. Honda, O. Kitao, H. Nakai, 
 T. Vreven, K. Throssell, J. A. Montgomery, Jr., J. E. Peralta, 
 F. Ogliaro, M. J. Bearpark, J. J. Heyd, E. N. Brothers, K. N. Kudin, 
 V. N. Staroverov, T. A. Keith, R. Kobayashi, J. Normand, 
 K. Raghavachari, A. P. Rendell, J. C. Burant, S. S. Iyengar, 
 J. Tomasi, M. Cossi, J. M. Millam, M. Klene, C. Adamo, R. Cammi, 
 J. W. Ochterski, R. L. Martin, K. Morokuma, O. Farkas, 
 J. B. Foresman, and D. J. Fox, Gaussian, Inc., Wallingford CT, 2016.
 
 ******************************************
 Gaussian 16:  ES64L-G16RevA.03 25-Dec-2016
                22-Oct-2022 
 ******************************************
 %Chk=checkpoint.chk
 %NProcShared=12
 Will use up to   12 processors via shared memory.
 ------------------------------------------------------
 # wB97XD Gen Opt=(QST2) SCRF=(Solvent=TetraHydroFuran)
 ------------------------------------------------------
 1/5=1,18=20,26=3,27=202,38=1/1,3;
 2/9=110,12=2,17=6,18=5,40=1/2;
 3/5=7,11=2,25=1,30=1,70=2201,71=1,72=20,74=-58/1,2,3;
 4//1;
 5/5=2,38=5,53=20/2;
 6/7=2,8=2,9=2,10=2,28=1/1;
 7//1,2,3,16;
 1/5=1,18=20,26=3,27=202/3(2);
 2/9=110/2;
 99//99;
 2/9=110/2;
 3/5=7,6=1,11=2,25=1,30=1,70=2205,71=1,72=20,74=-58,82=7/1,2,3;
 4/5=5,16=3,69=1/1;
 5/5=2,38=5,53=20/2;
 7//1,2,3,16;
 1/5=1,18=20,26=3,27=202/3(-5);
 2/9=110/2;
 6/7=2,8=2,9=2,10=2,19=2,28=1/1;
 99/9=1/99;
 ----------------------------
 Mn Transition State Reactant
 ----------------------------
 Symbolic Z-matrix:
 Charge =  0 Multiplicity = 1
 Mn                    0.        0.        0. 
 C                    -0.09679   1.8323    0.02295 
 C                     0.        0.       -1.82342 
 C                     1.83282   0.       -0.02938 
 Br                    2.59808   2.59808   2.59808 
 N                    -0.04922  -2.15482   0.09332 
 N                    -2.15153  -0.14036   0.09515 
 C                     0.52385  -2.93988  -0.8355 
 C                     0.57609  -4.32182  -0.71618 
 C                     0.03787  -4.93262   0.41495 
 C                    -0.56724  -4.13205   1.38331 
 C                    -0.59422  -2.75751   1.15179 
 C                    -2.76019  -0.33999   1.26803 
 C                    -4.08404  -0.75052   1.40528 
 C                    -2.90821  -0.24504  -1.01025 
 C                    -4.25761  -0.57119  -0.97276 
 C                    -4.8572   -0.85573   0.2508 
 C                    -4.54612  -1.14763   2.76568 
 C                    -1.06072  -4.64508   2.69242 
 C                    -2.36035  -4.39435   3.17469 
 C                    -4.2951   -2.45577   3.22064 
 C                    -2.7088   -4.77698   4.4776 
 C                    -4.6235   -2.81682   4.53378 
 C                    -5.16246  -0.23395   3.6234 
 C                    -0.16193  -5.33835   3.51187 
 C                    -0.5204   -5.73496   4.79711 
 C                    -5.49479  -0.60032   4.92642 
 C                    -5.20842  -1.88092   5.39075 
 C                    -1.78362  -5.43139   5.29359 
 S                    -3.59561  -3.66717   2.11779 
 S                    -4.34059  -4.47249   5.11215 
 H                     1.05087  -4.91025  -1.50139 
 H                     0.08951  -6.01597   0.54182 
 H                    -1.07315  -2.12266   1.89001 
 H                    -2.16282  -0.19695   2.1652 
 H                    -2.4226   -0.06909  -1.96947 
 H                    -4.81913  -0.6322   -1.90505 
 H                    -5.90099  -1.1706    0.30616 
 H                    -5.36522   0.7782    3.26819 
 H                     0.84657  -5.53732   3.14359 
 H                     0.19986  -6.26023   5.42631 
 H                    -5.96589   0.12432   5.59251 
 H                    -5.4428   -2.16193   6.41931 
 H                    -2.05931  -5.70427   6.31399 
 O                     0.06255   0.01915  -2.96537 
 O                     2.97377  -0.00521  -0.04518 
 O                    -0.17883   2.9698    0.0391 
 H                     0.9665   -2.44597  -1.70172 
 N                     0.1205   -0.06435   2.03055 
 C                     0.1757   -0.32041   3.1556 
 C                     0.0988   -0.78664   4.50696 
 C                     1.18058  -0.65782   5.389 
 C                    -1.08395  -1.43608   4.90265 
 C                     1.07101  -1.1882    6.67028 
 H                     2.09302  -0.15307   5.06933 
 C                    -1.1749   -1.96428   6.18414 
 H                    -1.92637  -1.52866   4.21411 
 C                    -0.09853  -1.84109   7.06447 
 H                     1.90634  -1.09472   7.36578 
 H                    -2.08869  -2.47607   6.49182 
 H                    -0.17211  -2.25847   8.07044 
 
 Add virtual bond connecting atoms C2         and Br5        Dist= 7.19D+00.
 Add virtual bond connecting atoms C4         and Br5        Dist= 7.13D+00.
 Add virtual bond connecting atoms O46        and Br5        Dist= 7.05D+00.
 Add virtual bond connecting atoms O47        and Br5        Dist= 7.17D+00.
 Add virtual bond connecting atoms N49        and Br5        Dist= 6.96D+00.
 ---------------------------
 Mn Transition State Product
 ---------------------------
 Symbolic Z-matrix:
 Charge =  0 Multiplicity = 1
 Mn                    0.        0.        0. 
 C                    -0.08831   1.81915   0.02694 
 C                     0.        0.       -1.79318 
 C                     1.82129   0.        0.02701 
 Br                    0.21406   0.22525   2.60296 
 N                    -0.00198  -2.15626   0.10267 
 N                    -2.15359  -0.10666   0.10261 
 C                     0.38734  -2.90055  -0.94769 
 C                     0.33894  -4.28645  -0.94857 
 C                    -0.15783  -4.94905   0.17197 
 C                    -0.57167  -4.19114   1.26468 
 C                    -0.44573  -2.80197   1.18369 
 C                    -2.77703  -0.58203   1.18326 
 C                    -4.15855  -0.77451   1.26439 
 C                    -2.91591   0.24739  -0.9473 
 C                    -4.29788   0.13244  -0.94805 
 C                    -4.93564  -0.39652   0.17216 
 C                    -4.73565  -1.36773   2.50277 
 C                    -1.13591  -4.79615   2.50328 
 C                    -2.48294  -4.59586   2.85783 
 C                    -4.47     -2.70335   2.85753 
 C                    -2.9782   -5.11928   4.05963 
 C                    -4.96894  -3.2234    4.05928 
 C                    -5.54655  -0.59398   3.33896 
 C                    -0.32361  -5.56806   3.33979 
 C                    -0.82204  -6.0942    4.52932 
 C                    -6.04809  -1.11734   4.52841 
 C                    -5.74193  -2.42245   4.90321 
 C                    -2.14059  -5.85203   4.90386 
 S                    -3.58496  -3.76369   1.73597 
 S                    -4.6875   -4.9209    4.50034 
 H                     0.67663  -4.83606  -1.82736 
 H                    -0.23113  -6.03846   0.19274 
 H                    -0.69729  -2.18819   2.04804 
 H                    -2.15175  -0.80469   2.04727 
 H                    -2.4021    0.64317  -1.82367 
 H                    -4.86325   0.44411  -1.82647 
 H                    -6.02029  -0.52198   0.19305 
 H                    -5.76345   0.43908   3.05961 
 H                     0.71885  -5.73439   3.0606 
 H                    -0.17222  -6.6814    5.18043 
 H                    -6.66649  -0.49688   5.17925 
 H                    -6.10842  -2.82852   5.84804 
 H                    -2.52842  -6.23768   5.84873 
 O                     0.04791   0.05036  -2.9414 
 O                     2.96474  -0.00968   0.05082 
 O                    -0.15349   2.9608    0.05043 
 H                     0.75715  -2.36822  -1.82434 
 N                    -1.65831  -1.65831   4.97494 
 C                    -1.49859  -1.49859   6.11053 
 C                    -1.29961  -1.3004    7.5221 
 C                    -0.34285  -2.06547   8.20523 
 C                    -2.06463  -0.34327   8.20533 
 C                    -0.15599  -1.86853   9.57017 
 H                     0.24742  -2.80766   7.66548 
 C                    -1.86776  -0.15648   9.5701 
 H                    -2.80655   0.24696   7.66518 
 C                    -0.91601  -0.91674   10.25133 
 H                     0.58764  -2.46195   10.10498 
 H                    -2.46101   0.58719   10.10506 
 H                    -0.76552  -0.76628   11.32228 
 
 Add virtual bond connecting atoms N49        and H34        Dist= 5.91D+00.
 Add virtual bond connecting atoms N49        and H35        Dist= 5.84D+00.
 Iteration  1 RMS(Cart)=  0.19615266 RMS(Int)=  0.72414293
 Iteration  2 RMS(Cart)=  0.08376009 RMS(Int)=  0.71151554
 Iteration  3 RMS(Cart)=  0.08106556 RMS(Int)=  0.70163271
 Iteration  4 RMS(Cart)=  0.10270090 RMS(Int)=  0.68962846
 Iteration  5 RMS(Cart)=  0.09791021 RMS(Int)=  0.68110751
 Iteration  6 RMS(Cart)=  0.07979418 RMS(Int)=  0.67551353
 Iteration  7 RMS(Cart)=  0.07581911 RMS(Int)=  0.67225254
 Iteration  8 RMS(Cart)=  0.07090737 RMS(Int)=  0.67067744
 Iteration  9 RMS(Cart)=  0.03619010 RMS(Int)=  0.67005594
 Iteration 10 RMS(Cart)=  0.02785835 RMS(Int)=  0.66980848
 Iteration 11 RMS(Cart)=  0.02767779 RMS(Int)=  0.66978995
 Iteration 12 RMS(Cart)=  0.02803748 RMS(Int)=  0.66996348
 Iteration 13 RMS(Cart)=  0.02526217 RMS(Int)=  0.67032360
 Iteration 14 RMS(Cart)=  0.02229320 RMS(Int)=  0.67090512
 Iteration 15 RMS(Cart)=  0.02258036 RMS(Int)=  0.67163498
 Iteration 16 RMS(Cart)=  0.02175228 RMS(Int)=  0.67247605
 Iteration 17 RMS(Cart)=  0.01297324 RMS(Int)=  0.67323202
 Iteration 18 RMS(Cart)=  0.01068495 RMS(Int)=  0.67386021
 Iteration 19 RMS(Cart)=  0.01038841 RMS(Int)=  0.67439109
 Iteration 20 RMS(Cart)=  0.01013031 RMS(Int)=  0.67485869
 Iteration 21 RMS(Cart)=  0.00968548 RMS(Int)=  0.67526934
 Iteration 22 RMS(Cart)=  0.00928991 RMS(Int)=  0.67564005
 Iteration 23 RMS(Cart)=  0.00889044 RMS(Int)=  0.67598063
 Iteration 24 RMS(Cart)=  0.00802747 RMS(Int)=  0.67628869
 Iteration 25 RMS(Cart)=  0.00756644 RMS(Int)=  0.67657182
 Iteration 26 RMS(Cart)=  0.00716316 RMS(Int)=  0.67683443
 Iteration 27 RMS(Cart)=  0.00624588 RMS(Int)=  0.67708605
 Iteration 28 RMS(Cart)=  0.00557660 RMS(Int)=  0.67732399
 Iteration 29 RMS(Cart)=  0.00500569 RMS(Int)=  0.67754659
 Iteration 30 RMS(Cart)=  0.00450018 RMS(Int)=  0.67775218
 Iteration 31 RMS(Cart)=  0.00404326 RMS(Int)=  0.67793967
 Iteration 32 RMS(Cart)=  0.00362315 RMS(Int)=  0.67810931
 Iteration 33 RMS(Cart)=  0.00323915 RMS(Int)=  0.67826179
 Iteration 34 RMS(Cart)=  0.00289044 RMS(Int)=  0.67839800
 Iteration 35 RMS(Cart)=  0.00257502 RMS(Int)=  0.67851896
 Iteration 36 RMS(Cart)=  0.00229076 RMS(Int)=  0.67862575
 Iteration 37 RMS(Cart)=  0.00203543 RMS(Int)=  0.67871947
 Iteration 38 RMS(Cart)=  0.00180673 RMS(Int)=  0.67880121
 Iteration 39 RMS(Cart)=  0.00160237 RMS(Int)=  0.67887203
 Iteration 40 RMS(Cart)=  0.00142015 RMS(Int)=  0.67893295
 Iteration 41 RMS(Cart)=  0.00125797 RMS(Int)=  0.67898495
 Iteration 42 RMS(Cart)=  0.00111384 RMS(Int)=  0.67902893
 Iteration 43 RMS(Cart)=  0.00098592 RMS(Int)=  0.67906574
 Iteration 44 RMS(Cart)=  0.00087252 RMS(Int)=  0.67909615
 Iteration 45 RMS(Cart)=  0.00077210 RMS(Int)=  0.67912090
 Iteration 46 RMS(Cart)=  0.00068325 RMS(Int)=  0.67914062
 Iteration 47 RMS(Cart)=  0.00060470 RMS(Int)=  0.67915592
 Iteration 48 RMS(Cart)=  0.00053531 RMS(Int)=  0.67916733
 Iteration 49 RMS(Cart)=  0.00047406 RMS(Int)=  0.67917533
 Iteration 50 RMS(Cart)=  0.00042004 RMS(Int)=  0.67918036
 Iteration 51 RMS(Cart)=  0.00037243 RMS(Int)=  0.67918280
 Iteration 52 RMS(Cart)=  0.00033051 RMS(Int)=  0.67918300
 Iteration 53 RMS(Cart)=  0.00029363 RMS(Int)=  0.67918127
 Iteration 54 RMS(Cart)=  0.00026123 RMS(Int)=  0.67917787
 Iteration 55 RMS(Cart)=  0.00023279 RMS(Int)=  0.67917306
 Iteration 56 RMS(Cart)=  0.00020788 RMS(Int)=  0.67916704
 Iteration 57 RMS(Cart)=  0.00018608 RMS(Int)=  0.67915999
 Iteration 58 RMS(Cart)=  0.00016705 RMS(Int)=  0.67915210
 Iteration 59 RMS(Cart)=  0.00015046 RMS(Int)=  0.67914349
 Iteration 60 RMS(Cart)=  0.00013604 RMS(Int)=  0.67913430
 Iteration 61 RMS(Cart)=  0.00012353 RMS(Int)=  0.67912464
 Iteration 62 RMS(Cart)=  0.00011270 RMS(Int)=  0.67911460
 Iteration 63 RMS(Cart)=  0.00010336 RMS(Int)=  0.67910428
 Iteration 64 RMS(Cart)=  0.00009530 RMS(Int)=  0.67909373
 Iteration 65 RMS(Cart)=  0.00008837 RMS(Int)=  0.67908304
 Iteration 66 RMS(Cart)=  0.00008242 RMS(Int)=  0.67907224
 Iteration 67 RMS(Cart)=  0.00007729 RMS(Int)=  0.67906139
 Iteration 68 RMS(Cart)=  0.00007288 RMS(Int)=  0.67905054
 Iteration 69 RMS(Cart)=  0.00006908 RMS(Int)=  0.67903970
 Iteration 70 RMS(Cart)=  0.00006578 RMS(Int)=  0.67902893
 Iteration 71 RMS(Cart)=  0.00006290 RMS(Int)=  0.67901823
 Iteration 72 RMS(Cart)=  0.00006037 RMS(Int)=  0.67900764
 Iteration 73 RMS(Cart)=  0.00005813 RMS(Int)=  0.67899717
 Iteration 74 RMS(Cart)=  0.00005614 RMS(Int)=  0.67898683
 Iteration 75 RMS(Cart)=  0.00005433 RMS(Int)=  0.67897664
 Iteration 76 RMS(Cart)=  0.00005269 RMS(Int)=  0.67896661
 Iteration 77 RMS(Cart)=  0.00005118 RMS(Int)=  0.67895674
 Iteration 78 RMS(Cart)=  0.00004977 RMS(Int)=  0.67894705
 Iteration 79 RMS(Cart)=  0.00004845 RMS(Int)=  0.67893754
 Iteration 80 RMS(Cart)=  0.00004721 RMS(Int)=  0.67892822
 Iteration 81 RMS(Cart)=  0.00004603 RMS(Int)=  0.67891907
 Iteration 82 RMS(Cart)=  0.00004489 RMS(Int)=  0.67891012
 Iteration 83 RMS(Cart)=  0.00004381 RMS(Int)=  0.67890135
 Iteration 84 RMS(Cart)=  0.00004275 RMS(Int)=  0.67889277
 Iteration 85 RMS(Cart)=  0.00004174 RMS(Int)=  0.67888438
 Iteration 86 RMS(Cart)=  0.00004075 RMS(Int)=  0.67887617
 Iteration 87 RMS(Cart)=  0.00003978 RMS(Int)=  0.67886816
 Iteration 88 RMS(Cart)=  0.00003884 RMS(Int)=  0.67886032
 Iteration 89 RMS(Cart)=  0.00003792 RMS(Int)=  0.67885267
 Iteration 90 RMS(Cart)=  0.00003702 RMS(Int)=  0.67884520
 Iteration 91 RMS(Cart)=  0.00003614 RMS(Int)=  0.67883790
 Iteration 92 RMS(Cart)=  0.00003528 RMS(Int)=  0.67883078
 Iteration 93 RMS(Cart)=  0.00003444 RMS(Int)=  0.67882384
 Iteration 94 RMS(Cart)=  0.00003362 RMS(Int)=  0.67881706
 Iteration 95 RMS(Cart)=  0.00003281 RMS(Int)=  0.67881044
 Iteration 96 RMS(Cart)=  0.00003202 RMS(Int)=  0.67880399
 Iteration 97 RMS(Cart)=  0.00003124 RMS(Int)=  0.67879770
 Iteration 98 RMS(Cart)=  0.00003048 RMS(Int)=  0.67879157
 Iteration 99 RMS(Cart)=  0.00002974 RMS(Int)=  0.67878558
 Iteration100 RMS(Cart)=  0.00002901 RMS(Int)=  0.67877975
 New curvilinear step not converged.
 FormGI is forming the generalized inverse of G from B-inverse, IUseBI=4.
 RedQX1 iteration     1 Try  1 RMS(Cart)=  0.37115967 RMS(Int)=  0.69909112 XScale=  8.45306056
 RedQX1 iteration     1 Try  2 RMS(Cart)=  0.37529121 RMS(Int)=  0.66422498 XScale=  4.16555970
 RedQX1 iteration     1 Try  3 RMS(Cart)=  0.40079188 RMS(Int)=  0.64569984 XScale=  2.70983322
 RedQX1 iteration     1 Try  4 RMS(Cart)=  0.48809734 RMS(Int)=  0.64529976 XScale=  1.94520636
 RedQX1 iteration     1 Try  5 RMS(Cart)=  0.81112999 RMS(Int)=  0.67550686 XScale=  1.39030016
 RedQX1 iteration     1 Try  6 RMS(Cart)=  0.69558890 RMS(Int)=  0.69575433 XScale=  1.18330261
 RedQX1 iteration     2 Try  1 RMS(Cart)=  0.13737306 RMS(Int)=  0.69377970 XScale=  1.16673567
 RedQX1 iteration     2 Try  2 RMS(Cart)=  0.17199279 RMS(Int)=  0.69447500 XScale=  1.14184701
 RedQX1 iteration     2 Try  3 RMS(Cart)=  0.24387587 RMS(Int)=  0.71241349 XScale=  1.08122161
 RedQX1 iteration     2 Try  4 RMS(Cart)=  0.51948259 RMS(Int)=  0.79380630 XScale=  0.98205965
 RedQX1 iteration     3 Try  1 RMS(Cart)=  0.20779303 RMS(Int)=  0.74437160 XScale=  1.01483540
 RedQX1 iteration     3 Try  2 RMS(Cart)=  0.28718405 RMS(Int)=  0.77869200 XScale=  1.00267676
 RedQX1 iteration     3 Try  3 RMS(Cart)=  0.29516619 RMS(Int)=  0.84009773 XScale=  0.89935608
 RedQX1 iteration     4 Try  1 RMS(Cart)=  0.17709972 RMS(Int)=  0.81112054 XScale=  0.94701483
 RedQX1 iteration     5 Try  1 RMS(Cart)=  0.03541994 RMS(Int)=  0.78126767 XScale=  0.99697574
 RedQX1 iteration     6 Try  1 RMS(Cart)=  0.00708399 RMS(Int)=  0.77915526 XScale=  1.00159537
 RedQX1 iteration     6 Try  2 RMS(Cart)=  0.00706073 RMS(Int)=  0.77964942 XScale=  1.00047344
 RedQX1 iteration     6 Try  3 RMS(Cart)=  0.00703575 RMS(Int)=  0.78017486 XScale=  0.99931076
 RedQX1 iteration     6 Try  4 RMS(Cart)=  0.00700867 RMS(Int)=  0.78073255 XScale=  0.99810623
 RedQX1 iteration     7 Try  1 RMS(Cart)=  0.00684046 RMS(Int)=  0.78071886 XScale=  0.99813548
 RedQX1 iteration     8 Try  1 RMS(Cart)=  0.00136809 RMS(Int)=  0.78028176 XScale=  0.99907779
 RedQX1 iteration     8 Try  2 RMS(Cart)=  0.00136706 RMS(Int)=  0.78038986 XScale=  0.99884326
 RedQX1 iteration     9 Try  1 RMS(Cart)=  0.00136488 RMS(Int)=  0.78038969 XScale=  0.99884364
 RedQX1 iteration    10 Try  1 RMS(Cart)=  0.00027298 RMS(Int)=  0.78030327 XScale=  0.99903104
 RedQX1 iteration    10 Try  2 RMS(Cart)=  0.00027293 RMS(Int)=  0.78032483 XScale=  0.99898423
 RedQX1 iteration    11 Try  1 RMS(Cart)=  0.00027285 RMS(Int)=  0.78032482 XScale=  0.99898424
 RedQX1 iteration    12 Try  1 RMS(Cart)=  0.00005457 RMS(Int)=  0.78030758 XScale=  0.99902168
 RedQX1 iteration    12 Try  2 RMS(Cart)=  0.00005457 RMS(Int)=  0.78031189 XScale=  0.99901233
 RedQX1 iteration    12 Try  3 RMS(Cart)=  0.00005457 RMS(Int)=  0.78031620 XScale=  0.99900296
 RedQX1 iteration    12 Try  4 RMS(Cart)=  0.00005456 RMS(Int)=  0.78032051 XScale=  0.99899360
 RedQX1 iteration    13 Try  1 RMS(Cart)=  0.00005455 RMS(Int)=  0.78032051 XScale=  0.99899360
 RedQX1 iteration    14 Try  1 RMS(Cart)=  0.00001091 RMS(Int)=  0.78031706 XScale=  0.99900109
 RedQX1 iteration    14 Try  2 RMS(Cart)=  0.00001091 RMS(Int)=  0.78031792 XScale=  0.99899922
 RedQX1 iteration    15 Try  1 RMS(Cart)=  0.00001091 RMS(Int)=  0.78031792 XScale=  0.99899922
 RedQX1 iteration    16 Try  1 RMS(Cart)=  0.00000218 RMS(Int)=  0.78031723 XScale=  0.99900072
 RedQX1 iteration    16 Try  2 RMS(Cart)=  0.00000218 RMS(Int)=  0.78031741 XScale=  0.99900034
 RedQX1 iteration    16 Try  3 RMS(Cart)=  0.00000218 RMS(Int)=  0.78031758 XScale=  0.99899997
 RedQX1 iteration    17 Try  1 RMS(Cart)=  0.00000218 RMS(Int)=  0.78031758 XScale=  0.99899997
 RedQX1 iteration    18 Try  1 RMS(Cart)=  0.00000044 RMS(Int)=  0.78031744 XScale=  0.99900027
 RedQX1 iteration    18 Try  2 RMS(Cart)=  0.00000044 RMS(Int)=  0.78031748 XScale=  0.99900019
 RedQX1 iteration    18 Try  3 RMS(Cart)=  0.00000044 RMS(Int)=  0.78031751 XScale=  0.99900012
 RedQX1 iteration    18 Try  4 RMS(Cart)=  0.00000044 RMS(Int)=  0.78031755 XScale=  0.99900004
 RedQX1 iteration    18 Try  5 RMS(Cart)=  0.00000044 RMS(Int)=  0.78031758 XScale=  0.99899997
 RedQX1 iteration    19 Try  1 RMS(Cart)=  0.00000044 RMS(Int)=  0.78031758 XScale=  0.99899997
 RedQX1 iteration    20 Try  1 RMS(Cart)=  0.00000009 RMS(Int)=  0.78031755 XScale=  0.99900003
 Iteration  1 RMS(Cart)=  0.04290687 RMS(Int)=  2.31436531
 Iteration  2 RMS(Cart)=  0.04400148 RMS(Int)=  2.30568101
 Iteration  3 RMS(Cart)=  0.04450655 RMS(Int)=  2.29796868
 Iteration  4 RMS(Cart)=  0.36381034 RMS(Int)=  2.22886377
 Iteration  5 RMS(Cart)=  0.36032414 RMS(Int)=  2.15652688
 Iteration  6 RMS(Cart)=  0.34441490 RMS(Int)=  2.08769409
 Iteration  7 RMS(Cart)=  0.04798068 RMS(Int)=  2.07690682
 Iteration  8 RMS(Cart)=  0.04493071 RMS(Int)=  2.06670020
 Iteration  9 RMS(Cart)=  0.04286873 RMS(Int)=  2.05668468
 Iteration 10 RMS(Cart)=  0.03665365 RMS(Int)=  2.04801885
 Iteration 11 RMS(Cart)=  0.03505237 RMS(Int)=  2.03965275
 Iteration 12 RMS(Cart)=  0.03306084 RMS(Int)=  2.03941299
 Iteration 13 RMS(Cart)=  0.11824766 RMS(Int)=  2.01141504
 Iteration 14 RMS(Cart)=  0.03639762 RMS(Int)=  2.00241789
 Iteration 15 RMS(Cart)=  0.03412677 RMS(Int)=  1.99389864
 Iteration 16 RMS(Cart)=  0.03253299 RMS(Int)=  1.98569264
 Iteration 17 RMS(Cart)=  0.03126540 RMS(Int)=  1.97748279
 Iteration 18 RMS(Cart)=  0.03015370 RMS(Int)=  1.97017329
 Iteration 19 RMS(Cart)=  0.02942039 RMS(Int)=  1.96258179
 Iteration 20 RMS(Cart)=  0.02735992 RMS(Int)=  1.95270780
 Iteration 21 RMS(Cart)=  0.05000529 RMS(Int)=  1.93669721
 Iteration 22 RMS(Cart)=  0.02796477 RMS(Int)=  1.93233178
 Iteration 23 RMS(Cart)=  0.01597366 RMS(Int)=  1.92550370
 Iteration 24 RMS(Cart)=  0.02672111 RMS(Int)=  1.92149646
 Iteration 25 RMS(Cart)=  0.01993007 RMS(Int)=  1.91631309
 Iteration 26 RMS(Cart)=  0.01544931 RMS(Int)=  1.91227992
 Iteration 27 RMS(Cart)=  0.01416074 RMS(Int)=  1.90591440
 Iteration 28 RMS(Cart)=  0.01157099 RMS(Int)=  1.90561178
 Iteration 29 RMS(Cart)=  0.01152725 RMS(Int)=  1.89996227
 Iteration 30 RMS(Cart)=  0.01113078 RMS(Int)=  1.89980520
 Iteration 31 RMS(Cart)=  0.01112304 RMS(Int)=  1.89677527
 Iteration 32 RMS(Cart)=  0.00722143 RMS(Int)=  1.89496177
 Iteration 33 RMS(Cart)=  0.01090634 RMS(Int)=  1.88955624
 Iteration 34 RMS(Cart)=  0.00934516 RMS(Int)=  1.88811547
 Iteration 35 RMS(Cart)=  0.00755101 RMS(Int)=  1.89175418
 Iteration 36 RMS(Cart)=  0.00937144 RMS(Int)=  1.88119521
 Iteration 37 RMS(Cart)=  0.00986331 RMS(Int)=  1.88683388
 Iteration 38 RMS(Cart)=  0.00924608 RMS(Int)=  1.87860363
 Iteration 39 RMS(Cart)=  0.00779380 RMS(Int)=  1.88017407
 Iteration 40 RMS(Cart)=  0.01149006 RMS(Int)=  1.87360613
 Iteration 41 RMS(Cart)=  0.00740357 RMS(Int)=  1.88001686
 Iteration 42 RMS(Cart)=  0.01265574 RMS(Int)=  1.87062708
 Iteration 43 RMS(Cart)=  0.01088104 RMS(Int)=  1.87143088
 Iteration 44 RMS(Cart)=  0.01589055 RMS(Int)=  1.86346670
 Iteration 45 RMS(Cart)=  0.01070269 RMS(Int)=  1.86050916
 Iteration 46 RMS(Cart)=  0.01058077 RMS(Int)=  1.86371733
 Iteration 47 RMS(Cart)=  0.01201799 RMS(Int)=  1.85212949
 Iteration 48 RMS(Cart)=  0.01357799 RMS(Int)=  1.85677549
 Iteration 49 RMS(Cart)=  0.00909979 RMS(Int)=  1.84808638
 Iteration 50 RMS(Cart)=  0.00991549 RMS(Int)=  1.85134025
 Iteration 51 RMS(Cart)=  0.01153860 RMS(Int)=  1.85104201
 Iteration 52 RMS(Cart)=  0.04143017 RMS(Int)=  1.84775453
 Iteration 53 RMS(Cart)=  0.03070780 RMS(Int)=  1.83812130
 Iteration 54 RMS(Cart)=  0.02401451 RMS(Int)=  1.82533297
 Iteration 55 RMS(Cart)=  0.02756434 RMS(Int)=  1.82258655
 Iteration 56 RMS(Cart)=  0.02185231 RMS(Int)=  1.80872488
 Iteration 57 RMS(Cart)=  0.02259100 RMS(Int)=  1.80924354
 Iteration 58 RMS(Cart)=  0.01204934 RMS(Int)=  1.80374332
 Iteration 59 RMS(Cart)=  0.01164067 RMS(Int)=  1.79662118
 Iteration 60 RMS(Cart)=  0.01395623 RMS(Int)=  1.79574384
 Iteration 61 RMS(Cart)=  0.01287026 RMS(Int)=  1.78708032
 Iteration 62 RMS(Cart)=  0.01721054 RMS(Int)=  1.78620038
 Iteration 63 RMS(Cart)=  0.01839400 RMS(Int)=  1.77635367
 Iteration 64 RMS(Cart)=  0.02168016 RMS(Int)=  1.77252977
 Iteration 65 RMS(Cart)=  0.01850554 RMS(Int)=  1.76213847
 Iteration 66 RMS(Cart)=  0.01646259 RMS(Int)=  1.76053364
 Iteration 67 RMS(Cart)=  0.01428365 RMS(Int)=  1.75244375
 Iteration 68 RMS(Cart)=  0.01399884 RMS(Int)=  1.75114506
 Iteration 69 RMS(Cart)=  0.01380659 RMS(Int)=  1.74311933
 Iteration 70 RMS(Cart)=  0.01320723 RMS(Int)=  1.74202184
 Iteration 71 RMS(Cart)=  0.01266382 RMS(Int)=  1.74551845
 Iteration 72 RMS(Cart)=  0.02081758 RMS(Int)=  1.73873148
 Iteration 73 RMS(Cart)=  0.02317671 RMS(Int)=  1.72646319
 Iteration 74 RMS(Cart)=  0.01750142 RMS(Int)=  1.72337388
 Iteration 75 RMS(Cart)=  0.01686776 RMS(Int)=  1.71741896
 Iteration 76 RMS(Cart)=  0.01877509 RMS(Int)=  1.71015491
 Iteration 77 RMS(Cart)=  0.01491165 RMS(Int)=  1.70451306
 Iteration 78 RMS(Cart)=  0.01498070 RMS(Int)=  1.69923334
 Iteration 79 RMS(Cart)=  0.01140642 RMS(Int)=  1.69394043
 Iteration 80 RMS(Cart)=  0.00941446 RMS(Int)=  1.69175980
 Iteration 81 RMS(Cart)=  0.01234347 RMS(Int)=  1.68874795
 Iteration 82 RMS(Cart)=  0.01068892 RMS(Int)=  1.67908681
 Iteration 83 RMS(Cart)=  0.01077797 RMS(Int)=  1.67777725
 Iteration 84 RMS(Cart)=  0.00950915 RMS(Int)=  1.66997255
 Iteration 85 RMS(Cart)=  0.00891021 RMS(Int)=  1.67822702
 Iteration 86 RMS(Cart)=  0.00749970 RMS(Int)=  1.67224480
 Iteration 87 RMS(Cart)=  0.00842476 RMS(Int)=  1.67167910
 Iteration 88 RMS(Cart)=  0.00738393 RMS(Int)=  1.66574118
 Iteration 89 RMS(Cart)=  0.00818008 RMS(Int)=  1.66526405
 Iteration 90 RMS(Cart)=  0.00714716 RMS(Int)=  1.65938592
 Iteration 91 RMS(Cart)=  0.00697457 RMS(Int)=  1.65939480
 Iteration 92 RMS(Cart)=  0.00693712 RMS(Int)=  1.65346724
 Iteration 93 RMS(Cart)=  0.00721432 RMS(Int)=  1.65323546
 Iteration 94 RMS(Cart)=  0.00626056 RMS(Int)=  1.64506052
 Iteration 95 RMS(Cart)=  0.00639539 RMS(Int)=  1.64476693
 Iteration 96 RMS(Cart)=  0.00551901 RMS(Int)=  1.64767082
 Iteration 97 RMS(Cart)=  0.00631758 RMS(Int)=  1.64790743
 Iteration 98 RMS(Cart)=  0.00539093 RMS(Int)=  1.65787872
 Iteration 99 RMS(Cart)=  0.00674210 RMS(Int)=  1.65185475
 Iteration100 RMS(Cart)=  0.00650886 RMS(Int)=  1.65146259
 New curvilinear step not converged.
 FormGI is forming the generalized inverse of G from B-inverse, IUseBI=4.
 RedQX1 iteration     1 Try  1 RMS(Cart)=  0.97550426 RMS(Int)=  2.15815349 XScale=  5.44613945
 RedQX1 iteration     1 Try  2 RMS(Cart)=  0.99675089 RMS(Int)=  2.16966442 XScale=  3.00325346
 RedQX1 iteration     1 Try  3 RMS(Cart)=  1.26669205 RMS(Int)=  2.52940961 XScale=  1.64010171
 RedQX1 iteration     1 Try  4 RMS(Cart)=  1.76541330 RMS(Int)=  3.27500644 XScale=  1.05669134
 RedQX1 iteration     1 Try  5 RMS(Cart)=  4.56722522 RMS(Int)=  5.65924377 XScale=  0.52493385
 RedQX1 iteration     2 Try  1 RMS(Cart)=  0.91344504 RMS(Int)=  3.62596606 XScale=  0.92235825
 RedQX1 iteration     3 Try  1 RMS(Cart)=  0.18268901 RMS(Int)=  3.33649023 XScale=  1.03013757
 RedQX1 iteration     3 Try  2 RMS(Cart)=  0.18999948 RMS(Int)=  3.39232999 XScale=  0.99938029
 RedQX1 iteration     3 Try  3 RMS(Cart)=  0.20911085 RMS(Int)=  3.48010202 XScale=  0.96644826
 RedQX1 iteration     4 Try  1 RMS(Cart)=  0.19238198 RMS(Int)=  3.47293529 XScale=  0.96908118
 RedQX1 iteration     5 Try  1 RMS(Cart)=  0.03847640 RMS(Int)=  3.40819314 XScale=  0.99331528
 RedQX1 iteration     6 Try  1 RMS(Cart)=  0.00769528 RMS(Int)=  3.39549213 XScale=  0.99816726
 RedQX1 iteration     7 Try  1 RMS(Cart)=  0.00153906 RMS(Int)=  3.39296199 XScale=  0.99913769
 RedQX1 iteration     7 Try  2 RMS(Cart)=  0.00153979 RMS(Int)=  3.39359444 XScale=  0.99889502
 RedQX1 iteration     8 Try  1 RMS(Cart)=  0.00153930 RMS(Int)=  3.39359424 XScale=  0.99889509
 RedQX1 iteration     9 Try  1 RMS(Cart)=  0.00030786 RMS(Int)=  3.39308842 XScale=  0.99908917
 RedQX1 iteration     9 Try  2 RMS(Cart)=  0.00030789 RMS(Int)=  3.39321487 XScale=  0.99904065
 RedQX1 iteration     9 Try  3 RMS(Cart)=  0.00030792 RMS(Int)=  3.39334134 XScale=  0.99899212
 RedQX1 iteration    10 Try  1 RMS(Cart)=  0.00030788 RMS(Int)=  3.39334132 XScale=  0.99899213
 RedQX1 iteration    11 Try  1 RMS(Cart)=  0.00006158 RMS(Int)=  3.39324016 XScale=  0.99903094
 RedQX1 iteration    11 Try  2 RMS(Cart)=  0.00006158 RMS(Int)=  3.39326545 XScale=  0.99902124
 RedQX1 iteration    11 Try  3 RMS(Cart)=  0.00006158 RMS(Int)=  3.39329074 XScale=  0.99901154
 RedQX1 iteration    11 Try  4 RMS(Cart)=  0.00006158 RMS(Int)=  3.39331604 XScale=  0.99900183
 RedQX1 iteration    11 Try  5 RMS(Cart)=  0.00006158 RMS(Int)=  3.39334133 XScale=  0.99899213
 RedQX1 iteration    12 Try  1 RMS(Cart)=  0.00006158 RMS(Int)=  3.39334133 XScale=  0.99899213
 RedQX1 iteration    13 Try  1 RMS(Cart)=  0.00001232 RMS(Int)=  3.39332109 XScale=  0.99899989
 RedQX1 iteration    14 Try  1 RMS(Cart)=  0.00000246 RMS(Int)=  3.39331705 XScale=  0.99900144
 RedQX1 iteration    14 Try  2 RMS(Cart)=  0.00000246 RMS(Int)=  3.39331806 XScale=  0.99900106
 RedQX1 iteration    14 Try  3 RMS(Cart)=  0.00000246 RMS(Int)=  3.39331907 XScale=  0.99900067
 RedQX1 iteration    14 Try  4 RMS(Cart)=  0.00000246 RMS(Int)=  3.39332008 XScale=  0.99900028
 RedQX1 iteration    14 Try  5 RMS(Cart)=  0.00000246 RMS(Int)=  3.39332109 XScale=  0.99899989
 RedQX1 iteration    15 Try  1 RMS(Cart)=  0.00000246 RMS(Int)=  3.39332109 XScale=  0.99899989
 RedQX1 iteration    16 Try  1 RMS(Cart)=  0.00000049 RMS(Int)=  3.39332028 XScale=  0.99900020
 RedQX1 iteration    16 Try  2 RMS(Cart)=  0.00000049 RMS(Int)=  3.39332049 XScale=  0.99900012
 RedQX1 iteration    16 Try  3 RMS(Cart)=  0.00000049 RMS(Int)=  3.39332069 XScale=  0.99900005
 RedQX1 iteration    16 Try  4 RMS(Cart)=  0.00000049 RMS(Int)=  3.39332089 XScale=  0.99899997
 RedQX1 iteration    17 Try  1 RMS(Cart)=  0.00000049 RMS(Int)=  3.39332089 XScale=  0.99899997
 RedQX1 iteration    18 Try  1 RMS(Cart)=  0.00000010 RMS(Int)=  3.39332073 XScale=  0.99900003
 Iteration  1 RMS(Cart)=  0.41212697 RMS(Int)=  3.23418527
 Iteration  2 RMS(Cart)=  0.03778400 RMS(Int)=  3.22925799
 Iteration  3 RMS(Cart)=  0.03653895 RMS(Int)=  3.22451703
 Iteration  4 RMS(Cart)=  0.03563312 RMS(Int)=  3.21991466
 Iteration  5 RMS(Cart)=  0.03497265 RMS(Int)=  3.21541890
 Iteration  6 RMS(Cart)=  0.02680590 RMS(Int)=  3.21196882
 Iteration  7 RMS(Cart)=  0.02666075 RMS(Int)=  3.20855197
 Iteration  8 RMS(Cart)=  0.02655441 RMS(Int)=  3.20516359
 Iteration  9 RMS(Cart)=  0.02648526 RMS(Int)=  3.20179929
 Iteration 10 RMS(Cart)=  0.02643548 RMS(Int)=  3.19845689
 Iteration 11 RMS(Cart)=  0.02634915 RMS(Int)=  3.19514103
 Iteration 12 RMS(Cart)=  0.02607823 RMS(Int)=  3.19187270
 Iteration 13 RMS(Cart)=  0.02545860 RMS(Int)=  3.18971644
 Iteration 14 RMS(Cart)=  0.03370923 RMS(Int)=  3.18557974
 Iteration 15 RMS(Cart)=  0.03375504 RMS(Int)=  3.18146721
 Iteration 16 RMS(Cart)=  0.03376155 RMS(Int)=  3.18021795
 Iteration 17 RMS(Cart)=  0.41808793 RMS(Int)=  3.14653846
 Iteration 18 RMS(Cart)=  0.11870628 RMS(Int)=  3.13435350
 Iteration 19 RMS(Cart)=  0.06135373 RMS(Int)=  3.12791243
 Iteration 20 RMS(Cart)=  0.05398348 RMS(Int)=  3.12229572
 Iteration 21 RMS(Cart)=  0.05224819 RMS(Int)=  3.11692455
 Iteration 22 RMS(Cart)=  0.05135363 RMS(Int)=  3.11168533
 Iteration 23 RMS(Cart)=  0.05206642 RMS(Int)=  3.10634275
 Iteration 24 RMS(Cart)=  0.05135573 RMS(Int)=  3.09889732
 Iteration 25 RMS(Cart)=  0.07907211 RMS(Int)=  3.09102737
 Iteration 26 RMS(Cart)=  0.07633694 RMS(Int)=  3.08347836
 Iteration 27 RMS(Cart)=  0.09346809 RMS(Int)=  3.07439790
 Iteration 28 RMS(Cart)=  0.09085277 RMS(Int)=  3.06582468
 Iteration 29 RMS(Cart)=  0.07644389 RMS(Int)=  3.05855860
 Iteration 30 RMS(Cart)=  0.07026403 RMS(Int)=  3.05184456
 Iteration 31 RMS(Cart)=  0.06297512 RMS(Int)=  3.04572796
 Iteration 32 RMS(Cart)=  0.05653501 RMS(Int)=  3.04015168
 Iteration 33 RMS(Cart)=  0.05237737 RMS(Int)=  3.03492840
 Iteration 34 RMS(Cart)=  0.05012747 RMS(Int)=  3.02989210
 Iteration 35 RMS(Cart)=  0.04895006 RMS(Int)=  3.02495158
 Iteration 36 RMS(Cart)=  0.04702611 RMS(Int)=  3.02014258
 Iteration 37 RMS(Cart)=  0.04733076 RMS(Int)=  3.01522145
 Iteration 38 RMS(Cart)=  0.04492806 RMS(Int)=  3.01055263
 Iteration 39 RMS(Cart)=  0.04239346 RMS(Int)=  3.00615908
 Iteration 40 RMS(Cart)=  0.04004945 RMS(Int)=  3.00202853
 Iteration 41 RMS(Cart)=  0.03796861 RMS(Int)=  2.99813900
 Iteration 42 RMS(Cart)=  0.03614804 RMS(Int)=  2.99446684
 Iteration 43 RMS(Cart)=  0.03455908 RMS(Int)=  2.99098971
 Iteration 44 RMS(Cart)=  0.03315593 RMS(Int)=  2.98768848
 Iteration 45 RMS(Cart)=  0.03878914 RMS(Int)=  2.98389749
 Iteration 46 RMS(Cart)=  0.03734010 RMS(Int)=  2.98027690
 Iteration 47 RMS(Cart)=  0.04219129 RMS(Int)=  2.97555001
 Iteration 48 RMS(Cart)=  0.03033666 RMS(Int)=  2.97225686
 Iteration 49 RMS(Cart)=  0.03477436 RMS(Int)=  2.97228109
 Iteration 50 RMS(Cart)=  0.03363905 RMS(Int)=  2.96876148
 Iteration 51 RMS(Cart)=  0.03456483 RMS(Int)=  2.96522592
 Iteration 52 RMS(Cart)=  0.03334744 RMS(Int)=  2.96239300
 Iteration 53 RMS(Cart)=  0.03104225 RMS(Int)=  2.95848379
 Iteration 54 RMS(Cart)=  0.02921321 RMS(Int)=  2.95589922
 Iteration 55 RMS(Cart)=  0.02692886 RMS(Int)=  2.95284668
 Iteration 56 RMS(Cart)=  0.02674861 RMS(Int)=  2.94979599
 Iteration 57 RMS(Cart)=  0.02591877 RMS(Int)=  2.94806229
 Iteration 58 RMS(Cart)=  0.02381994 RMS(Int)=  2.94421905
 Iteration 59 RMS(Cart)=  0.02483320 RMS(Int)=  2.94305317
 Iteration 60 RMS(Cart)=  0.02283723 RMS(Int)=  2.93874396
 Iteration 61 RMS(Cart)=  0.02395367 RMS(Int)=  2.93774512
 Iteration 62 RMS(Cart)=  0.02159554 RMS(Int)=  2.93333098
 Iteration 63 RMS(Cart)=  0.02307657 RMS(Int)=  2.93240402
 Iteration 64 RMS(Cart)=  0.01603012 RMS(Int)=  2.92856473
 Iteration 65 RMS(Cart)=  0.02232859 RMS(Int)=  2.92772604
 Iteration 66 RMS(Cart)=  0.01557767 RMS(Int)=  2.92723599
 Iteration 67 RMS(Cart)=  0.03539455 RMS(Int)=  2.92521155
 Iteration 68 RMS(Cart)=  0.02518267 RMS(Int)=  2.92122514
 Iteration 69 RMS(Cart)=  0.02525892 RMS(Int)=  2.91596081
 Iteration 70 RMS(Cart)=  0.02776416 RMS(Int)=  2.91351658
 Iteration 71 RMS(Cart)=  0.02400927 RMS(Int)=  2.90927753
 Iteration 72 RMS(Cart)=  0.02206674 RMS(Int)=  2.90593512
 Iteration 73 RMS(Cart)=  0.02504804 RMS(Int)=  2.90390486
 Iteration 74 RMS(Cart)=  0.02108336 RMS(Int)=  2.90043937
 Iteration 75 RMS(Cart)=  0.02067376 RMS(Int)=  2.89628842
 Iteration 76 RMS(Cart)=  0.02139856 RMS(Int)=  2.89389642
 Iteration 77 RMS(Cart)=  0.02028342 RMS(Int)=  2.89017891
 Iteration 78 RMS(Cart)=  0.02027708 RMS(Int)=  2.88749591
 Iteration 79 RMS(Cart)=  0.01889509 RMS(Int)=  2.88416523
 Iteration 80 RMS(Cart)=  0.01846636 RMS(Int)=  2.88034046
 Iteration 81 RMS(Cart)=  0.02089872 RMS(Int)=  2.87701378
 Iteration 82 RMS(Cart)=  0.01766201 RMS(Int)=  2.87405751
 Iteration 83 RMS(Cart)=  0.01966618 RMS(Int)=  2.87104584
 Iteration 84 RMS(Cart)=  0.01677458 RMS(Int)=  2.86796550
 Iteration 85 RMS(Cart)=  0.01869984 RMS(Int)=  2.86525171
 Iteration 86 RMS(Cart)=  0.01601207 RMS(Int)=  2.86206907
 Iteration 87 RMS(Cart)=  0.01779971 RMS(Int)=  2.85961092
 Iteration 88 RMS(Cart)=  0.01557082 RMS(Int)=  2.85629892
 Iteration 89 RMS(Cart)=  0.01687518 RMS(Int)=  2.85404479
 Iteration 90 RMS(Cart)=  0.01343669 RMS(Int)=  2.85097499
 Iteration 91 RMS(Cart)=  0.01472807 RMS(Int)=  2.84912642
 Iteration 92 RMS(Cart)=  0.01163341 RMS(Int)=  2.84627320
 Iteration 93 RMS(Cart)=  0.01279389 RMS(Int)=  2.84149736
 Iteration 94 RMS(Cart)=  0.00887649 RMS(Int)=  2.84128262
 Iteration 95 RMS(Cart)=  0.01142511 RMS(Int)=  2.84002819
 Iteration 96 RMS(Cart)=  0.01076976 RMS(Int)=  2.83631092
 Iteration 97 RMS(Cart)=  0.01150612 RMS(Int)=  2.83313090
 Iteration 98 RMS(Cart)=  0.00809123 RMS(Int)=  2.83276365
 Iteration 99 RMS(Cart)=  0.01062321 RMS(Int)=  2.83206805
 Iteration100 RMS(Cart)=  0.00946620 RMS(Int)=  2.82893958
 New curvilinear step not converged.
 FormGI is forming the generalized inverse of G from B-inverse, IUseBI=4.
 RedQX1 iteration     1 Try  1 RMS(Cart)=  1.22232670 RMS(Int)=  2.85261308 XScale=  6.36497060
 RedQX1 iteration     1 Try  2 RMS(Cart)=  1.23748838 RMS(Int)=  2.75005628 XScale=  3.12469768
 RedQX1 iteration     1 Try  3 RMS(Cart)=  1.63741193 RMS(Int)=  3.12853873 XScale=  2.33828615
 RedQX1 iteration     1 Try  4 RMS(Cart)=  2.81258885 RMS(Int)=  4.45396037 XScale=  1.44837442
 RedQX1 iteration     1 Try  5 RMS(Cart)=  7.91292564 RMS(Int)=  9.57267447 XScale=  0.45793583
 RedQX1 iteration     2 Try  1 RMS(Cart)=  1.58258513 RMS(Int)=  5.29773040 XScale=  1.07128324
 RedQX1 iteration     2 Try  2 RMS(Cart)=  2.10280176 RMS(Int)=  6.63062269 XScale=  0.76120633
 RedQX1 iteration     3 Try  1 RMS(Cart)=  1.68224141 RMS(Int)=  6.34820128 XScale=  0.81102740
 RedQX1 iteration     4 Try  1 RMS(Cart)=  0.33644828 RMS(Int)=  5.48952123 XScale=  1.00968392
 RedQX1 iteration     4 Try  2 RMS(Cart)=  0.36479276 RMS(Int)=  5.71233444 XScale=  0.94999695
 RedQX1 iteration     5 Try  1 RMS(Cart)=  0.35020105 RMS(Int)=  5.70364736 XScale=  0.95226555
 RedQX1 iteration     6 Try  1 RMS(Cart)=  0.07004021 RMS(Int)=  5.53096549 XScale=  0.99742029
 RedQX1 iteration     7 Try  1 RMS(Cart)=  0.01400804 RMS(Int)=  5.49779986 XScale=  1.00720348
 RedQX1 iteration     7 Try  2 RMS(Cart)=  0.01404426 RMS(Int)=  5.50610731 XScale=  1.00472953
 RedQX1 iteration     7 Try  3 RMS(Cart)=  0.01408063 RMS(Int)=  5.51443959 XScale=  1.00226427
 RedQX1 iteration     7 Try  4 RMS(Cart)=  0.01411713 RMS(Int)=  5.52279389 XScale=  0.99980909
 RedQX1 iteration     7 Try  5 RMS(Cart)=  0.01415378 RMS(Int)=  5.53116856 XScale=  0.99736464
 RedQX1 iteration     8 Try  1 RMS(Cart)=  0.01406319 RMS(Int)=  5.53111497 XScale=  0.99738023
 RedQX1 iteration     9 Try  1 RMS(Cart)=  0.00281264 RMS(Int)=  5.52445814 XScale=  0.99932202
 RedQX1 iteration     9 Try  2 RMS(Cart)=  0.00281409 RMS(Int)=  5.52612319 XScale=  0.99883538
 RedQX1 iteration    10 Try  1 RMS(Cart)=  0.00281319 RMS(Int)=  5.52612266 XScale=  0.99883553
 RedQX1 iteration    11 Try  1 RMS(Cart)=  0.00056264 RMS(Int)=  5.52479104 XScale=  0.99922467
 RedQX1 iteration    11 Try  2 RMS(Cart)=  0.00056270 RMS(Int)=  5.52512398 XScale=  0.99912734
 RedQX1 iteration    11 Try  3 RMS(Cart)=  0.00056275 RMS(Int)=  5.52545695 XScale=  0.99903002
 RedQX1 iteration    11 Try  4 RMS(Cart)=  0.00056281 RMS(Int)=  5.52578995 XScale=  0.99893272
 RedQX1 iteration    12 Try  1 RMS(Cart)=  0.00056270 RMS(Int)=  5.52578989 XScale=  0.99893274
 RedQX1 iteration    13 Try  1 RMS(Cart)=  0.00011254 RMS(Int)=  5.52552354 XScale=  0.99901056
 RedQX1 iteration    13 Try  2 RMS(Cart)=  0.00011254 RMS(Int)=  5.52559012 XScale=  0.99899111
 RedQX1 iteration    14 Try  1 RMS(Cart)=  0.00011254 RMS(Int)=  5.52559012 XScale=  0.99899111
 RedQX1 iteration    15 Try  1 RMS(Cart)=  0.00002251 RMS(Int)=  5.52553685 XScale=  0.99900667
 RedQX1 iteration    15 Try  2 RMS(Cart)=  0.00002251 RMS(Int)=  5.52555017 XScale=  0.99900278
 RedQX1 iteration    15 Try  3 RMS(Cart)=  0.00002251 RMS(Int)=  5.52556349 XScale=  0.99899889
 RedQX1 iteration    16 Try  1 RMS(Cart)=  0.00002251 RMS(Int)=  5.52556349 XScale=  0.99899889
 RedQX1 iteration    17 Try  1 RMS(Cart)=  0.00000450 RMS(Int)=  5.52555284 XScale=  0.99900200
 RedQX1 iteration    17 Try  2 RMS(Cart)=  0.00000450 RMS(Int)=  5.52555550 XScale=  0.99900122
 RedQX1 iteration    17 Try  3 RMS(Cart)=  0.00000450 RMS(Int)=  5.52555816 XScale=  0.99900045
 RedQX1 iteration    17 Try  4 RMS(Cart)=  0.00000450 RMS(Int)=  5.52556083 XScale=  0.99899967
 RedQX1 iteration    18 Try  1 RMS(Cart)=  0.00000450 RMS(Int)=  5.52556083 XScale=  0.99899967
 RedQX1 iteration    19 Try  1 RMS(Cart)=  0.00000090 RMS(Int)=  5.52555869 XScale=  0.99900029
 RedQX1 iteration    19 Try  2 RMS(Cart)=  0.00000090 RMS(Int)=  5.52555923 XScale=  0.99900013
 RedQX1 iteration    19 Try  3 RMS(Cart)=  0.00000090 RMS(Int)=  5.52555976 XScale=  0.99899998
 RedQX1 iteration    20 Try  1 RMS(Cart)=  0.00000090 RMS(Int)=  5.52555976 XScale=  0.99899998
 Old curvilinear step not converged, using linear step:
 SCX= 4.30D+01 DXMaxT= 4.94-324 SCLim= 0.00D+00 Fact= 0.00D+00
 RedCar/ORedCr failed for GTrans.
 Error termination via Lnk1e in /home1/apps/gaussian/16rA.03/g16/l101.exe at Sat Oct 22 00:25:24 2022.
 Job cpu time:       0 days  0 hours  0 minutes 42.7 seconds.
 Elapsed time:       0 days  0 hours  0 minutes  6.4 seconds.
 File lengths (MBytes):  RWF=      6 Int=      0 D2E=      0 Chk=      1 Scr=      1
