 Entering Gaussian System, Link 0=g16
 Initial command:
 /home1/apps/gaussian/16rA.03/g16/l1.exe "/tmp/Gau-55283.inp" -scrdir="/tmp/"
 Entering Link 1 = /home1/apps/gaussian/16rA.03/g16/l1.exe PID=     55285.
  
 Copyright (c) 1988,1990,1992,1993,1995,1998,2003,2009,2016,
            Gaussian, Inc.  All Rights Reserved.
  
 This is part of the Gaussian(R) 16 program.  It is based on
 the Gaussian(R) 09 system (copyright 2009, Gaussian, Inc.),
 the Gaussian(R) 03 system (copyright 2003, Gaussian, Inc.),
 the Gaussian(R) 98 system (copyright 1998, Gaussian, Inc.),
 the Gaussian(R) 94 system (copyright 1995, Gaussian, Inc.),
 the Gaussian 92(TM) system (copyright 1992, Gaussian, Inc.),
 the Gaussian 90(TM) system (copyright 1990, Gaussian, Inc.),
 the Gaussian 88(TM) system (copyright 1988, Gaussian, Inc.),
 the Gaussian 86(TM) system (copyright 1986, Carnegie Mellon
 University), and the Gaussian 82(TM) system (copyright 1983,
 Carnegie Mellon University). Gaussian is a federally registered
 trademark of Gaussian, Inc.
  
 This software contains proprietary and confidential information,
 including trade secrets, belonging to Gaussian, Inc.
  
 This software is provided under written license and may be
 used, copied, transmitted, or stored only in accord with that
 written license.
  
 The following legend is applicable only to US Government
 contracts under FAR:
  
                    RESTRICTED RIGHTS LEGEND
  
 Use, reproduction and disclosure by the US Government is
 subject to restrictions as set forth in subparagraphs (a)
 and (c) of the Commercial Computer Software - Restricted
 Rights clause in FAR 52.227-19.
  
 Gaussian, Inc.
 340 Quinnipiac St., Bldg. 40, Wallingford CT 06492
  
  
 ---------------------------------------------------------------
 Warning -- This program may not be used in any manner that
 competes with the business of Gaussian, Inc. or will provide
 assistance to any competitor of Gaussian, Inc.  The licensee
 of this program is prohibited from giving any competitor of
 Gaussian, Inc. access to this program.  By using this program,
 the user acknowledges that Gaussian, Inc. is engaged in the
 business of creating and licensing software in the field of
 computational chemistry and represents and warrants to the
 licensee that it is not a competitor of Gaussian, Inc. and that
 it will not use this program in any manner prohibited above.
 ---------------------------------------------------------------
  

 Cite this work as:
 Gaussian 16, Revision A.03,
 M. J. Frisch, G. W. Trucks, H. B. Schlegel, G. E. Scuseria, 
 M. A. Robb, J. R. Cheeseman, G. Scalmani, V. Barone, 
 G. A. Petersson, H. Nakatsuji, X. Li, M. Caricato, A. V. Marenich, 
 J. Bloino, B. G. Janesko, R. Gomperts, B. Mennucci, H. P. Hratchian, 
 J. V. Ortiz, A. F. Izmaylov, J. L. Sonnenberg, D. Williams-Young, 
 F. Ding, F. Lipparini, F. Egidi, J. Goings, B. Peng, A. Petrone, 
 T. Henderson, D. Ranasinghe, V. G. Zakrzewski, J. Gao, N. Rega, 
 G. Zheng, W. Liang, M. Hada, M. Ehara, K. Toyota, R. Fukuda, 
 J. Hasegawa, M. Ishida, T. Nakajima, Y. Honda, O. Kitao, H. Nakai, 
 T. Vreven, K. Throssell, J. A. Montgomery, Jr., J. E. Peralta, 
 F. Ogliaro, M. J. Bearpark, J. J. Heyd, E. N. Brothers, K. N. Kudin, 
 V. N. Staroverov, T. A. Keith, R. Kobayashi, J. Normand, 
 K. Raghavachari, A. P. Rendell, J. C. Burant, S. S. Iyengar, 
 J. Tomasi, M. Cossi, J. M. Millam, M. Klene, C. Adamo, R. Cammi, 
 J. W. Ochterski, R. L. Martin, K. Morokuma, O. Farkas, 
 J. B. Foresman, and D. J. Fox, Gaussian, Inc., Wallingford CT, 2016.
 
 ******************************************
 Gaussian 16:  ES64L-G16RevA.03 25-Dec-2016
                17-Feb-2023 
 ******************************************
 %Chk=checkpoint.chk
 %NProcShared=12
 Will use up to   12 processors via shared memory.
 -----------------------------------------------------
 #wB97XD Gen Opt=(QST3) SCRF=(Solvent=TetraHydroFuran)
 -----------------------------------------------------
 1/5=1,18=20,26=3,27=203,38=1/1,3;
 2/9=110,12=2,17=6,18=5,40=1/2;
 3/5=7,11=2,25=1,30=1,70=2201,71=1,72=20,74=-58/1,2,3;
 4//1;
 5/5=2,38=5,53=20/2;
 6/7=2,8=2,9=2,10=2,28=1/1;
 7//1,2,3,16;
 1/5=1,18=20,26=3,27=203/3(2);
 2/9=110/2;
 99//99;
 2/9=110/2;
 3/5=7,6=1,11=2,25=1,30=1,70=2205,71=1,72=20,74=-58,82=7/1,2,3;
 4/5=5,16=3,69=1/1;
 5/5=2,38=5,53=20/2;
 7//1,2,3,16;
 1/5=1,18=20,26=3,27=203/3(-5);
 2/9=110/2;
 6/7=2,8=2,9=2,10=2,19=2,28=1/1;
 99/9=1/99;
 ------------------------------------
 Anthracene Transition State Reactant
 ------------------------------------
 Symbolic Z-matrix:
 Charge =  0 Multiplicity = 1
 Mn                   -1.0194   -0.13282  -1.30041 
 C                    -1.95084   1.09527  -2.29845 
 O                    -2.50101   1.87539  -2.92239 
 C                    -1.94096  -1.55093  -2.01671 
 O                    -2.47772  -2.45176  -2.46467 
 C                     0.20025  -0.27236  -2.6431 
 N                     0.04927  -1.53221  -0.03083 
 C                     0.07866  -3.04556   1.8282 
 C                     1.46702  -3.1228    1.77993 
 C                     1.37634  -1.67638  -0.11513 
 H                    -0.49205  -3.5931    2.57846 
 H                     2.01871  -3.71611   2.51212 
 N                    -2.37065   0.02942   0.19031 
 C                    -3.16697   0.13023   1.0198 
 C                    -4.10539   0.2658    2.09209 
 C                    -3.6202    0.43566   3.39952 
 C                    -4.52704   0.57079   4.44399 
 C                    -5.48203   0.23058   1.82486 
 H                    -2.54534   0.46071   3.58681 
 H                    -5.82775   0.09615   0.79488 
 N                     0.05018   1.50245  -0.35369 
 C                     0.08073   3.37421   1.14383 
 C                     1.47006   3.42805   1.09346 
 H                    -0.49002   4.07266   1.75603 
 C                    -0.58809  -2.23239   0.92237 
 H                    -1.67251  -2.14107   0.96102 
 C                    -0.58735   2.39419   0.42298 
 H                    -1.67305   2.32336   0.46813 
 H                    -4.16287   0.70328   5.46409 
 O                     0.94147  -0.36186  -3.51126 
 C                     3.71034   0.05692   0.59661 
 C                     6.44285   0.00195   0.07986 
 C                     2.14993  -2.41932   0.78562 
 C                     3.63318  -2.42875   0.67238 
 C                     4.33237  -3.60918   0.65808 
 C                     5.74721  -3.62943   0.48325 
 C                     6.44286  -2.47015   0.28898 
 C                     5.76733  -1.20725   0.29051 
 C                     4.35206  -1.18133   0.52939 
 H                     3.79554  -4.55679   0.74485 
 H                     6.26618  -4.58974   0.47691 
 H                     7.52231  -2.48926   0.12265 
 C                     4.35394   1.25516   0.28141 
 C                     5.76945   1.23001   0.04342 
 C                     6.44775   2.46555  -0.21061 
 C                     5.75436   3.64152  -0.25402 
 C                     4.33929   3.65908  -0.08147 
 C                     3.63726   2.50702   0.16895 
 H                     7.52743   2.44868  -0.37582 
 H                     6.27529   4.58008  -0.45221 
 H                     3.80437   4.6056   -0.18931 
 C                     2.15352   2.52607   0.2752 
 H                     2.02229   4.15802   1.68899 
 C                     1.37923   1.61496  -0.45427 
 H                     1.87683   0.94259  -1.1522 
 H                     1.87309  -1.17143  -0.94303 
 C                    -5.89955   0.53687   4.18594 
 C                    -6.37363   0.36773   2.88435 
 H                    -7.44706   0.34214   2.68994 
 H                    -6.60706   0.64379   5.01079 
 Br                   -5.87537  -0.28615  -1.89241 
 H                     7.52454  -0.01473  -0.07653 
 H                     2.66679   0.08836   0.89635 
 
 Add virtual bond connecting atoms Br61       and H20        Dist= 5.13D+00.
 -----------------------------------
 Anthracene Transition State Product
 -----------------------------------
 Symbolic Z-matrix:
 Charge =  0 Multiplicity = 1
 Mn                   -1.44286   0.16026  -2.01412 
 C                    -2.20443   1.54882  -2.90891 
 O                    -2.68366   2.42731  -3.46349 
 C                    -2.21304  -1.07612  -3.10367 
 O                    -2.69804  -1.85971  -3.78172 
 C                    -0.01408   0.23546  -3.09485 
 N                    -0.60049  -1.44099  -0.81185 
 C                    -0.82342  -3.27125   0.71581 
 C                     0.55737  -3.36677   0.85296 
 C                     0.7252   -1.5913   -0.72767 
 H                    -1.48955  -3.94449   1.25661 
 H                     1.00241  -4.09964   1.52935 
 N                     0.0775   -0.17244   2.4041 
 C                    -1.05369  -0.19765   2.64732 
 C                    -2.45976  -0.23136   2.94445 
 C                    -3.12645  -1.4621    3.01383 
 C                    -4.49389  -1.48788   3.26678 
 C                    -3.15853   0.96659   3.1448 
 H                    -2.5722   -2.38909   2.86463 
 H                    -2.62937   1.91849   3.09601 
 N                    -0.59083   1.56154  -0.58857 
 C                    -0.80429   3.1413    1.19825 
 C                     0.5769    3.20654   1.34817 
 H                    -1.46646   3.7285    1.83564 
 C                    -1.3638   -2.28301  -0.09733 
 H                    -2.44255  -2.14076  -0.17604 
 C                    -1.34964   2.291     0.24463 
 H                    -2.42913   2.16919   0.14486 
 H                    -5.01736  -2.44419   3.31559 
 O                     0.86165   0.2873   -3.83871 
 C                     2.91235  -0.04746   0.58557 
 C                     5.69235  -0.04273   0.41158 
 C                     1.36924  -2.49754   0.12252 
 C                     2.85402  -2.5063    0.21569 
 C                     3.56205  -3.67493   0.08887 
 C                     4.98786  -3.68132   0.09599 
 C                     5.69088  -2.51399   0.19056 
 C                     5.00769  -1.26191   0.32192 
 C                     3.57322  -1.26107   0.38259 
 H                     3.02896  -4.61681  -0.06081 
 H                     5.51371  -4.63251  -0.00729 
 H                     6.783    -2.51728   0.16154 
 C                     3.58071   1.17889   0.56648 
 C                     5.01522   1.18024   0.5065 
 C                     5.70587   2.43375   0.56536 
 C                     5.00976   3.60611   0.64834 
 C                     3.58394   3.60941   0.64 
 C                     2.86897   2.43926   0.58848 
 H                     6.79801   2.43509   0.53708 
 H                     5.54131   4.55882   0.69009 
 H                     3.05653   4.56629   0.63458 
 C                     1.38429   2.45343   0.49431 
 H                     1.02578   3.82526   2.12808 
 C                     0.73572   1.68987  -0.48314 
 H                     1.34033   1.15471  -1.214 
 H                     1.33286  -0.9558   -1.37019 
 C                    -5.19354  -0.29487   3.45284 
 C                    -4.52569   0.92909   3.39758 
 H                    -5.07398   1.86057   3.54798 
 H                    -6.26798  -0.31941   3.64516 
 Br                   -3.72263   0.07153  -0.71897 
 H                     1.84487  -0.05936   0.78995 
 H                     6.78538  -0.04496   0.39399 
 
 Add virtual bond connecting atoms N7         and Mn1        Dist= 4.11D+00.
 Add virtual bond connecting atoms N21        and Mn1        Dist= 4.11D+00.
 Add virtual bond connecting atoms H11        and H19        Dist= 4.70D+00.
 Add virtual bond connecting atoms H24        and H20        Dist= 4.71D+00.
 Add virtual bond connecting atoms H62        and N13        Dist= 4.53D+00.
 -----------------------------------------
 Anthracene Transition State Initial Guess
 -----------------------------------------
 Symbolic Z-matrix:
 Charge =  0 Multiplicity = 1
 Mn                   -1.15625  -0.14734  -1.88689 
 C                    -1.91803   1.13663  -2.95696 
 O                    -2.22669   1.99125  -3.65658 
 C                    -1.89448  -1.58703  -2.76088 
 O                    -2.16976  -2.54097  -3.33596 
 C                     0.16915  -0.21981  -3.05634 
 N                    -0.17404  -1.71226  -0.61087 
 C                    -0.398    -3.39783   1.07538 
 C                     0.97197  -3.35364   1.3271 
 C                     1.14879  -1.74844  -0.4301 
 H                    -1.05675  -4.06212   1.6415 
 H                     1.40944  -3.97002   2.11696 
 N                    -2.18788   0.03316   0.07741 
 C                    -2.6776    0.15722   1.11594 
 C                    -3.32575   0.31222   2.39252 
 C                    -2.5877    0.68835   3.51666 
 C                    -3.23446   0.85651   4.74291 
 C                    -4.6998    0.09855   2.49221 
 H                    -1.51945   0.85468   3.42029 
 H                    -5.25634  -0.1929    1.60383 
 N                    -0.16948   1.58109  -0.86916 
 C                    -0.35464   3.50267   0.54508 
 C                     1.01868   3.50068   0.76735 
 H                    -1.00062   4.24217   1.01795 
 C                    -0.93181  -2.55554   0.10939 
 H                    -2.00706  -2.54496  -0.08759 
 C                    -0.9095    2.52171  -0.2677 
 H                    -1.98771   2.47424  -0.43236 
 H                    -2.66943   1.15769   5.62424 
 O                     1.00727  -0.27561  -3.8491 
 C                     3.30598   0.04362   0.68763 
 C                     6.09285   0.03491   0.73104 
 C                     1.78557  -2.51585   0.55512 
 C                     3.26493  -2.45613   0.73972 
 C                     3.98681  -3.61758   0.8578 
 C                     5.41061  -3.60751   0.97502 
 C                     6.10356  -2.43226   0.9306 
 C                     5.4073   -1.18532   0.79888 
 C                     3.97002  -1.18637   0.74829 
 H                     3.46729  -4.58001   0.82818 
 H                     5.9413   -4.55827   1.0712 
 H                     7.19706  -2.41951   0.98714 
 C                     3.98291   1.25737   0.52113 
 C                     5.42045   1.25219   0.56737 
 C                     6.13063   2.49484   0.4585 
 C                     5.4509    3.66495   0.2876 
 C                     4.02618   3.66803   0.18592 
 C                     3.29192   2.51174   0.28791 
 H                     7.22439   2.48235   0.50897 
 H                     5.99255   4.6114    0.20082 
 H                     3.51469   4.61362  -0.01299 
 C                     1.81164   2.55253   0.11755 
 H                     1.47471   4.228     1.44612 
 C                     1.15439   1.64345  -0.72434 
 H                     1.73946   0.93524  -1.3101 
 H                     1.75189  -1.13312  -1.10216 
 C                    -4.60134   0.64645   4.84723 
 C                    -5.33173   0.26551   3.72646 
 H                    -6.40078   0.10334   3.81418 
 H                    -5.10369   0.78051   5.81408 
 Br                   -4.18519  -0.21051  -2.08928 
 H                     7.18675   0.03581   0.79295 
 H                     2.22029   0.05368   0.76401 
 

 GradGradGradGradGradGradGradGradGradGradGradGradGradGradGradGradGradGrad
 Berny optimization.
 Initialization pass.
                           ----------------------------
                           !    Initial Parameters    !
                           ! (Angstroms and Degrees)  !
 --------------------------                            --------------------------
 ! Name  Definition         TS        Reactant Product Derivative Info.         !
 --------------------------------------------------------------------------------
 ! R1    R(1,2)             1.8368    1.8363    1.819  estimate D2E/DX2         !
 ! R2    R(1,4)             1.8389    1.8367    1.819  estimate D2E/DX2         !
 ! R3    R(1,6)             1.7691    1.8193    1.7931 estimate D2E/DX2         !
 ! R4    R(1,7)             2.2454    2.1708    2.1723 estimate D2E/DX2         !
 ! R5    R(1,13)            2.2261    2.0185    4.6843 estimate D2E/DX2         !
 ! R6    R(1,21)            2.2354    2.1713    2.173  estimate D2E/DX2         !
 ! R7    R(1,61)            3.0364    4.8943    2.6235 estimate D2E/DX2         !
 ! R8    R(2,3)             1.1468    1.1404    1.1441 estimate D2E/DX2         !
 ! R9    R(4,5)             1.1474    1.1403    1.1441 estimate D2E/DX2         !
 ! R10   R(6,30)            1.155     1.145     1.1502 estimate D2E/DX2         !
 ! R11   R(7,10)            1.3356    1.3375    1.3368 estimate D2E/DX2         !
 ! R12   R(7,25)            1.3432    1.3435    1.3425 estimate D2E/DX2         !
 ! R13   R(8,9)             1.3936    1.3913    1.3909 estimate D2E/DX2         !
 ! R14   R(8,11)            1.0935    1.0901    1.0906 estimate D2E/DX2         !
 ! R15   R(8,25)            1.3884    1.3879    1.3892 estimate D2E/DX2         !
 ! R16   R(9,12)            1.0932    1.092     1.0921 estimate D2E/DX2         !
 ! R17   R(9,33)            1.3999    1.3964    1.3958 estimate D2E/DX2         !
 ! R18   R(10,33)           1.4018    1.4006    1.3996 estimate D2E/DX2         !
 ! R19   R(10,56)           1.0927    1.0896    1.089  estimate D2E/DX2         !
 ! R20   R(11,19)           5.2491    4.6547    2.4854 estimate D2E/DX2         !
 ! R21   R(13,14)           1.1549    1.1543    1.1573 estimate D2E/DX2         !
 ! R22   R(13,62)           9.4019    9.8989    2.3962 estimate D2E/DX2         !
 ! R23   R(14,15)           1.4401    1.4314    1.4375 estimate D2E/DX2         !
 ! R24   R(15,16)           1.3964    1.4049    1.4014 estimate D2E/DX2         !
 ! R25   R(15,18)           1.3941    1.4028    1.4013 estimate D2E/DX2         !
 ! R26   R(16,17)           1.3965    1.3898    1.3909 estimate D2E/DX2         !
 ! R27   R(16,19)           1.0854    1.0913    1.0903 estimate D2E/DX2         !
 ! R28   R(17,29)           1.0894    1.0912    1.0913 estimate D2E/DX2         !
 ! R29   R(17,57)           1.3869    1.397     1.3955 estimate D2E/DX2         !
 ! R30   R(18,20)           1.0881    1.0947    1.0902 estimate D2E/DX2         !
 ! R31   R(18,58)           1.3966    1.3915    1.3908 estimate D2E/DX2         !
 ! R32   R(20,24)           6.1745    6.7252    2.4934 estimate D2E/DX2         !
 ! R33   R(20,61)           3.8454    2.7148    4.3773 estimate D2E/DX2         !
 ! R34   R(21,27)           1.3395    1.3435    1.3424 estimate D2E/DX2         !
 ! R35   R(21,54)           1.3332    1.3376    1.3369 estimate D2E/DX2         !
 ! R36   R(22,23)           1.3912    1.3913    1.3908 estimate D2E/DX2         !
 ! R37   R(22,24)           1.0898    1.0901    1.0907 estimate D2E/DX2         !
 ! R38   R(22,27)           1.3895    1.3879    1.3892 estimate D2E/DX2         !
 ! R39   R(23,52)           1.3964    1.3965    1.3958 estimate D2E/DX2         !
 ! R40   R(23,53)           1.0944    1.092     1.092  estimate D2E/DX2         !
 ! R41   R(25,26)           1.0932    1.0889    1.0909 estimate D2E/DX2         !
 ! R42   R(27,28)           1.0917    1.0889    1.0909 estimate D2E/DX2         !
 ! R43   R(31,39)           1.3991    1.3963    1.3967 estimate D2E/DX2         !
 ! R44   R(31,43)           1.3997    1.3962    1.3968 estimate D2E/DX2         !
 ! R45   R(31,62)           3.8822    3.8738    1.0869 estimate D2E/DX2         !
 ! R46   R(31,63)           1.0884    1.0862    3.8778 estimate D2E/DX2         !
 ! R47   R(32,38)           1.4013    1.401     1.4011 estimate D2E/DX2         !
 ! R48   R(32,44)           1.4002    1.401     1.4011 estimate D2E/DX2         !
 ! R49   R(32,62)           1.0957    1.0931    3.8661 estimate D2E/DX2         !
 ! R50   R(32,63)           3.8727    3.8643    1.0932 estimate D2E/DX2         !
 ! R51   R(33,34)           1.492     1.4876    1.4877 estimate D2E/DX2         !
 ! R52   R(34,35)           1.3726    1.372     1.3723 estimate D2E/DX2         !
 ! R53   R(34,39)           1.4524    1.4468    1.4477 estimate D2E/DX2         !
 ! R54   R(35,36)           1.4287    1.4257    1.4258 estimate D2E/DX2         !
 ! R55   R(35,40)           1.0941    1.0926    1.0926 estimate D2E/DX2         !
 ! R56   R(36,37)           1.3651    1.3659    1.366  estimate D2E/DX2         !
 ! R57   R(36,41)           1.0931    1.0916    1.0918 estimate D2E/DX2         !
 ! R58   R(37,38)           1.4342    1.4322    1.4324 estimate D2E/DX2         !
 ! R59   R(37,42)           1.095     1.0924    1.0925 estimate D2E/DX2         !
 ! R60   R(38,39)           1.4382    1.4355    1.4358 estimate D2E/DX2         !
 ! R61   R(43,44)           1.4383    1.4356    1.4358 estimate D2E/DX2         !
 ! R62   R(43,48)           1.451     1.4469    1.4476 estimate D2E/DX2         !
 ! R63   R(44,45)           1.4354    1.4322    1.4324 estimate D2E/DX2         !
 ! R64   R(45,46)           1.364     1.3659    1.366  estimate D2E/DX2         !
 ! R65   R(45,49)           1.095     1.0924    1.0925 estimate D2E/DX2         !
 ! R66   R(46,47)           1.4284    1.4257    1.4258 estimate D2E/DX2         !
 ! R67   R(46,50)           1.0939    1.0916    1.0918 estimate D2E/DX2         !
 ! R68   R(47,48)           1.3735    1.3722    1.3723 estimate D2E/DX2         !
 ! R69   R(47,51)           1.0933    1.0926    1.0926 estimate D2E/DX2         !
 ! R70   R(48,52)           1.4906    1.4877    1.4877 estimate D2E/DX2         !
 ! R71   R(52,54)           1.4026    1.4006    1.3997 estimate D2E/DX2         !
 ! R72   R(54,55)           1.0895    1.0894    1.0891 estimate D2E/DX2         !
 ! R73   R(57,58)           1.3909    1.3955    1.3954 estimate D2E/DX2         !
 ! R74   R(57,60)           1.0978    1.092     1.0918 estimate D2E/DX2         !
 ! R75   R(58,59)           1.0848    1.0912    1.0913 estimate D2E/DX2         !
 ! A1    A(2,1,4)          95.9631   92.8602   92.6906 estimate D2E/DX2         !
 ! A2    A(2,1,6)          87.3775   89.4398   90.2928 estimate D2E/DX2         !
 ! A3    L(2,1,7,4,-1)    180.2274  181.5632  182.3854 estimate D2E/DX2         !
 ! A4    L(2,1,7,4,-2)    178.4675  182.4131  183.4865 estimate D2E/DX2         !
 ! A5    A(2,1,13)        105.3778   90.4629  130.8496 estimate D2E/DX2         !
 ! A6    A(2,1,21)         84.7109   89.035    89.6911 estimate D2E/DX2         !
 ! A7    A(2,1,61)         64.0233   56.7659   84.5395 estimate D2E/DX2         !
 ! A8    A(4,1,6)          87.3929   89.3883   90.279  estimate D2E/DX2         !
 ! A9    A(4,1,7)          84.2642   88.703    89.6949 estimate D2E/DX2         !
 ! A10   A(4,1,13)        107.267    90.8132  130.8505 estimate D2E/DX2         !
 ! A11   L(4,1,21,2,-1)   180.6741  181.8953  182.3816 estimate D2E/DX2         !
 ! A12   L(4,1,21,2,-2)   182.5451  177.8035  176.5025 estimate D2E/DX2         !
 ! A13   A(4,1,61)         63.3562   55.3068   84.5361 estimate D2E/DX2         !
 ! A14   A(6,1,7)          91.111    92.9897   93.1816 estimate D2E/DX2         !
 ! A15   L(6,1,13,2,-1)   192.7553  179.9027  221.1424 estimate D2E/DX2         !
 ! A16   L(6,1,13,2,-2)   196.8717  180.197   245.2912 estimate D2E/DX2         !
 ! A17   A(6,1,21)         90.1099   92.827    93.2059 estimate D2E/DX2         !
 ! A18   L(6,1,61,2,-1)   151.4008  146.2057  174.8323 estimate D2E/DX2         !
 ! A19   L(6,1,61,2,-2)   143.5666  133.7926  174.5395 estimate D2E/DX2         !
 ! A20   A(7,1,13)         75.9822   87.1023   45.5557 estimate D2E/DX2         !
 ! A21   A(7,1,21)         94.9945   89.3121   87.7196 estimate D2E/DX2         !
 ! A22   A(7,1,61)        117.3703  122.615    92.2245 estimate D2E/DX2         !
 ! A23   A(13,1,21)        74.9379   86.9744   45.554  estimate D2E/DX2         !
 ! A24   A(21,1,61)       119.1297  124.4079   92.2164 estimate D2E/DX2         !
 ! A25   L(1,2,3,18,-1)   186.3961  181.2299  179.5621 estimate D2E/DX2         !
 ! A26   L(1,2,3,22,-1)   176.8751  179.0518  179.5279 estimate D2E/DX2         !
 ! A27   L(1,2,3,18,-2)   172.8819  178.8291  179.7608 estimate D2E/DX2         !
 ! A28   L(1,2,3,22,-2)   171.4869  178.5473  180.1171 estimate D2E/DX2         !
 ! A29   L(1,4,5,8,-1)    177.0102  178.9781  179.5473 estimate D2E/DX2         !
 ! A30   L(1,4,5,8,-2)    189.5113  181.8662  179.8672 estimate D2E/DX2         !
 ! A31   L(1,6,30,10,-1)  181.4766  181.4747  182.6714 estimate D2E/DX2         !
 ! A32   L(1,6,30,10,-2)  178.5434  178.99    178.0594 estimate D2E/DX2         !
 ! A33   A(1,7,10)        121.9401  121.4044  120.1501 estimate D2E/DX2         !
 ! A34   A(1,7,25)        119.703   121.1552  122.4403 estimate D2E/DX2         !
 ! A35   A(10,7,25)       117.9813  117.3369  117.3751 estimate D2E/DX2         !
 ! A36   A(9,8,11)        121.1949  121.2244  121.0019 estimate D2E/DX2         !
 ! A37   A(9,8,25)        118.9736  119.2911  119.5213 estimate D2E/DX2         !
 ! A38   A(11,8,25)       119.8119  119.4687  119.4588 estimate D2E/DX2         !
 ! A39   A(8,9,12)        120.3977  120.7321  120.7784 estimate D2E/DX2         !
 ! A40   A(8,9,33)        119.3855  118.9955  118.8861 estimate D2E/DX2         !
 ! A41   A(12,9,33)       120.2164  120.2701  120.331  estimate D2E/DX2         !
 ! A42   A(7,10,33)       124.046   124.3771  124.5675 estimate D2E/DX2         !
 ! A43   A(7,10,56)       116.6254  116.7619  116.7806 estimate D2E/DX2         !
 ! A44   A(33,10,56)      119.3286  118.8603  118.6518 estimate D2E/DX2         !
 ! A45   A(8,11,19)        70.0931   86.7094  101.5699 estimate D2E/DX2         !
 ! A46   L(1,13,14,8,-1)  180.0439  181.4217  143.4264 estimate D2E/DX2         !
 ! A47   L(1,13,14,8,-2)  177.1137  180.9146  272.8095 estimate D2E/DX2         !
 ! A48   A(14,13,62)      110.7531  135.1856  149.7131 estimate D2E/DX2         !
 ! A49   L(13,14,15,11,-1)  180.6345  178.6485  179.8378 estimate D2E/DX2       !
 ! A50   L(13,14,15,1,-1)  180.8874  179.3423  179.8053 estimate D2E/DX2        !
 ! A51   L(13,14,15,11,-2)  181.5547  177.655  180.1544 estimate D2E/DX2        !
 ! A52   L(13,14,15,1,-2)  118.9808  323.0409  179.8888 estimate D2E/DX2        !
 ! A53   A(14,15,16)      120.3143  118.8297  119.745  estimate D2E/DX2         !
 ! A54   A(14,15,18)      119.3734  119.8879  119.8197 estimate D2E/DX2         !
 ! A55   A(16,15,18)      120.308   121.2822  120.4296 estimate D2E/DX2         !
 ! A56   A(15,16,17)      119.6391  119.0657  119.537  estimate D2E/DX2         !
 ! A57   A(15,16,19)      119.3402  120.1746  119.8713 estimate D2E/DX2         !
 ! A58   A(17,16,19)      121.0181  120.7597  120.591  estimate D2E/DX2         !
 ! A59   A(16,17,29)      120.2299  119.7748  119.7337 estimate D2E/DX2         !
 ! A60   A(16,17,57)      120.2824  119.9927  120.0872 estimate D2E/DX2         !
 ! A61   A(29,17,57)      119.4873  120.2326  120.1787 estimate D2E/DX2         !
 ! A62   A(15,18,20)      119.1299  119.4873  119.8693 estimate D2E/DX2         !
 ! A63   A(15,18,58)      119.3946  118.7694  119.546  estimate D2E/DX2         !
 ! A64   A(20,18,58)      121.4753  121.7433  120.5838 estimate D2E/DX2         !
 ! A65   A(11,19,16)       88.4701  112.1661  147.3575 estimate D2E/DX2         !
 ! A66   A(18,20,24)       62.13     62.7598  151.9875 estimate D2E/DX2         !
 ! A67   A(18,20,61)      130.0081  162.5838   63.2149 estimate D2E/DX2         !
 ! A68   A(1,21,27)       120.2345  121.2128  122.409  estimate D2E/DX2         !
 ! A69   A(1,21,54)       121.5983  121.3339  120.1792 estimate D2E/DX2         !
 ! A70   A(27,21,54)      117.8375  117.3326  117.3719 estimate D2E/DX2         !
 ! A71   A(23,22,24)      121.1153  121.2226  120.9754 estimate D2E/DX2         !
 ! A72   A(23,22,27)      119.1192  119.2873  119.5087 estimate D2E/DX2         !
 ! A73   A(24,22,27)      119.7452  119.4755  119.497  estimate D2E/DX2         !
 ! A74   A(22,23,52)      119.1553  119.0084  118.8945 estimate D2E/DX2         !
 ! A75   A(22,23,53)      120.6295  120.7383  120.7806 estimate D2E/DX2         !
 ! A76   A(52,23,53)      120.2144  120.2517  120.3201 estimate D2E/DX2         !
 ! A77   A(20,24,22)       87.8403   87.5038  100.821  estimate D2E/DX2         !
 ! A78   A(7,25,8)        122.485   122.7164  122.4501 estimate D2E/DX2         !
 ! A79   A(7,25,26)       116.8853  116.9941  116.2352 estimate D2E/DX2         !
 ! A80   A(8,25,26)       120.6249  120.2893  121.3081 estimate D2E/DX2         !
 ! A81   A(21,27,22)      122.5347  122.7187  122.4637 estimate D2E/DX2         !
 ! A82   A(21,27,28)      116.5747  116.996   116.2248 estimate D2E/DX2         !
 ! A83   A(22,27,28)      120.8827  120.2851  121.3045 estimate D2E/DX2         !
 ! A84   A(39,31,43)      122.5444  122.5723  122.3093 estimate D2E/DX2         !
 ! A85   A(39,31,62)       61.4851   61.4914  118.8492 estimate D2E/DX2         !
 ! A86   A(39,31,63)      118.5882  118.7182   61.3666 estimate D2E/DX2         !
 ! A87   A(43,31,62)       61.414    61.4953  118.8238 estimate D2E/DX2         !
 ! A88   A(43,31,63)      118.865   118.7067   61.3697 estimate D2E/DX2         !
 ! A89   A(38,32,44)      121.8536  121.9166  121.8486 estimate D2E/DX2         !
 ! A90   A(38,32,62)      119.1065  119.0443   61.0678 estimate D2E/DX2         !
 ! A91   A(38,32,63)       60.9612   61.0778  119.0633 estimate D2E/DX2         !
 ! A92   A(44,32,62)      119.0337  119.0318   61.0645 estimate D2E/DX2         !
 ! A93   A(44,32,63)       61.0925   61.068   119.0833 estimate D2E/DX2         !
 ! A94   A(9,33,10)       116.8199  117.0675  116.9662 estimate D2E/DX2         !
 ! A95   A(9,33,34)       122.1384  122.5908  122.9607 estimate D2E/DX2         !
 ! A96   A(10,33,34)      121.0268  120.3387  120.073  estimate D2E/DX2         !
 ! A97   A(33,34,35)      119.8829  120.9546  120.9417 estimate D2E/DX2         !
 ! A98   A(33,34,39)      121.1351  119.8331  119.8661 estimate D2E/DX2         !
 ! A99   A(35,34,39)      118.9429  119.1791  119.1341 estimate D2E/DX2         !
 ! A100  A(34,35,36)      121.6839  121.2786  121.2856 estimate D2E/DX2         !
 ! A101  A(34,35,40)      119.4909  119.6689  119.674  estimate D2E/DX2         !
 ! A102  A(36,35,40)      118.7927  119.0134  118.9947 estimate D2E/DX2         !
 ! A103  A(35,36,37)      120.6179  120.7171  120.7422 estimate D2E/DX2         !
 ! A104  A(35,36,41)      119.0087  119.0123  119.0173 estimate D2E/DX2         !
 ! A105  A(37,36,41)      120.3487  120.2457  120.2125 estimate D2E/DX2         !
 ! A106  A(36,37,38)      120.3369  120.5328  120.5232 estimate D2E/DX2         !
 ! A107  A(36,37,42)      121.0156  120.6705  120.6689 estimate D2E/DX2         !
 ! A108  A(38,37,42)      118.6461  118.7953  118.8069 estimate D2E/DX2         !
 ! A109  A(32,38,37)      121.6038  122.24    122.2362 estimate D2E/DX2         !
 ! A110  A(32,38,39)      119.2003  118.9991  119.0121 estimate D2E/DX2         !
 ! A111  A(37,38,39)      119.1931  118.758   118.7457 estimate D2E/DX2         !
 ! A112  A(31,39,34)      122.541   122.1059  121.9443 estimate D2E/DX2         !
 ! A113  A(31,39,38)      118.3729  118.4984  118.6455 estimate D2E/DX2         !
 ! A114  A(34,39,38)      119.0781  119.389   119.4053 estimate D2E/DX2         !
 ! A115  A(31,43,44)      118.4522  118.4837  118.6513 estimate D2E/DX2         !
 ! A116  A(31,43,48)      122.5789  122.1247  121.9344 estimate D2E/DX2         !
 ! A117  A(44,43,48)      118.9642  119.3848  119.4097 estimate D2E/DX2         !
 ! A118  A(32,44,43)      119.1331  119.0099  119.0034 estimate D2E/DX2         !
 ! A119  A(32,44,45)      121.5927  122.2187  122.2494 estimate D2E/DX2         !
 ! A120  A(43,44,45)      119.271   118.7686  118.7409 estimate D2E/DX2         !
 ! A121  A(44,45,46)      120.3725  120.528   120.5213 estimate D2E/DX2         !
 ! A122  A(44,45,49)      118.7393  118.7904  118.817  estimate D2E/DX2         !
 ! A123  A(46,45,49)      120.8871  120.6802  120.6609 estimate D2E/DX2         !
 ! A124  A(45,46,47)      120.5204  120.7068  120.7457 estimate D2E/DX2         !
 ! A125  A(45,46,50)      120.3584  120.2507  120.209  estimate D2E/DX2         !
 ! A126  A(47,46,50)      119.1027  119.0168  119.0169 estimate D2E/DX2         !
 ! A127  A(46,47,48)      121.7444  121.3037  121.2822 estimate D2E/DX2         !
 ! A128  A(46,47,51)      118.7808  118.9924  118.9961 estimate D2E/DX2         !
 ! A129  A(48,47,51)      119.4401  119.663   119.6765 estimate D2E/DX2         !
 ! A130  A(43,48,47)      119.021   119.1567  119.1323 estimate D2E/DX2         !
 ! A131  A(43,48,52)      120.9946  119.9705  119.8668 estimate D2E/DX2         !
 ! A132  A(47,48,52)      119.9574  120.8346  120.9443 estimate D2E/DX2         !
 ! A133  A(23,52,48)      121.959   122.5636  122.9353 estimate D2E/DX2         !
 ! A134  A(23,52,54)      116.9562  117.0493  116.97   estimate D2E/DX2         !
 ! A135  A(48,52,54)      121.079   120.3865  120.0947 estimate D2E/DX2         !
 ! A136  A(21,54,52)      124.1138  124.391   124.5567 estimate D2E/DX2         !
 ! A137  A(21,54,55)      116.3868  116.7506  116.7927 estimate D2E/DX2         !
 ! A138  A(52,54,55)      119.4991  118.8579  118.6503 estimate D2E/DX2         !
 ! A139  A(17,57,58)      119.895   120.597   120.3067 estimate D2E/DX2         !
 ! A140  A(17,57,60)      119.9184  119.6479  119.8457 estimate D2E/DX2         !
 ! A141  A(58,57,60)      120.1866  119.7552  119.8473 estimate D2E/DX2         !
 ! A142  A(18,58,57)      120.4796  120.2931  120.0864 estimate D2E/DX2         !
 ! A143  A(18,58,59)      119.9654  119.4952  119.7296 estimate D2E/DX2         !
 ! A144  A(57,58,59)      119.554   120.2117  120.1834 estimate D2E/DX2         !
 ! A145  A(13,62,31)        2.8133    8.5014  148.3802 estimate D2E/DX2         !
 ! D1    D(4,1,7,10)      125.7738  118.0929  116.3527 estimate D2E/DX2         !
 ! D2    D(4,1,7,25)      -61.4058  -65.7047  -65.8409 estimate D2E/DX2         !
 ! D3    D(6,1,7,10)       38.5063   28.7733   26.0902 estimate D2E/DX2         !
 ! D4    D(6,1,7,25)     -148.6734 -155.0243 -156.1034 estimate D2E/DX2         !
 ! D5    D(13,1,7,10)    -124.8025 -151.027   -86.5137 estimate D2E/DX2         !
 ! D6    D(13,1,7,25)      48.0179   25.1754   91.2927 estimate D2E/DX2         !
 ! D7    D(21,1,7,10)     -51.7012  -64.0218  -66.9962 estimate D2E/DX2         !
 ! D8    D(21,1,7,25)     121.1192  112.1806  110.8102 estimate D2E/DX2         !
 ! D9    D(61,1,7,10)    -178.2482  164.4312 -159.1273 estimate D2E/DX2         !
 ! D10   D(61,1,7,25)      -5.4278  -19.3665   18.679  estimate D2E/DX2         !
 ! D11   D(2,1,15,16)    -116.1313 -132.5668  117.3152 estimate D2E/DX2         !
 ! D12   D(2,1,15,18)      62.3209   46.8712   -7.0382 estimate D2E/DX2         !
 ! D13   D(4,1,15,16)     142.0608  134.5698    8.9434 estimate D2E/DX2         !
 ! D14   D(4,1,15,18)     -39.487   -45.9921 -115.41   estimate D2E/DX2         !
 ! D15   D(7,1,15,16)      63.0897   45.9148  -62.8995 estimate D2E/DX2         !
 ! D16   D(7,1,15,18)    -118.4581 -134.6472  172.7471 estimate D2E/DX2         !
 ! D17   D(21,1,15,16)    -36.4488  -43.5417 -170.8879 estimate D2E/DX2         !
 ! D18   D(21,1,15,18)    142.0034  135.8964   64.7587 estimate D2E/DX2         !
 ! D19   D(2,1,21,27)      61.3866   64.9775   66.0092 estimate D2E/DX2         !
 ! D20   D(2,1,21,54)    -125.3506 -119.1227 -116.3481 estimate D2E/DX2         !
 ! D21   D(6,1,21,27)     148.7426  154.3689  156.2852 estimate D2E/DX2         !
 ! D22   D(6,1,21,54)     -37.9945  -29.7313  -26.0721 estimate D2E/DX2         !
 ! D23   D(7,1,21,27)    -120.1325 -112.6715 -110.6537 estimate D2E/DX2         !
 ! D24   D(7,1,21,54)      53.1303   63.2282   66.989  estimate D2E/DX2         !
 ! D25   D(13,1,21,27)    -46.1133  -25.5371  -91.1356 estimate D2E/DX2         !
 ! D26   D(13,1,21,54)    127.1495  150.3627   86.5071 estimate D2E/DX2         !
 ! D27   D(61,1,21,27)      5.1082   17.5031  -18.5141 estimate D2E/DX2         !
 ! D28   D(61,1,21,54)    178.3711 -166.5972  159.1286 estimate D2E/DX2         !
 ! D29   D(1,7,10,33)     166.408   170.9989  173.1231 estimate D2E/DX2         !
 ! D30   D(1,7,10,56)     -13.5088   -8.6878   -6.7473 estimate D2E/DX2         !
 ! D31   D(25,7,10,33)     -6.5308   -5.3429   -4.7922 estimate D2E/DX2         !
 ! D32   D(25,7,10,56)    173.5523  174.9705  175.3374 estimate D2E/DX2         !
 ! D33   D(1,7,25,8)     -169.4336 -174.1697 -177.2166 estimate D2E/DX2         !
 ! D34   D(1,7,25,26)       9.7819    5.9781    1.8568 estimate D2E/DX2         !
 ! D35   D(10,7,25,8)       3.6686    2.1817    0.6474 estimate D2E/DX2         !
 ! D36   D(10,7,25,26)   -177.1159 -177.6705  179.7208 estimate D2E/DX2         !
 ! D37   D(11,8,9,12)      -1.4678   -1.589    -1.8553 estimate D2E/DX2         !
 ! D38   D(11,8,9,33)     178.278   178.9627  178.9172 estimate D2E/DX2         !
 ! D39   D(25,8,9,12)     176.9199  176.9571  176.5923 estimate D2E/DX2         !
 ! D40   D(25,8,9,33)      -3.3343   -2.4911   -2.6352 estimate D2E/DX2         !
 ! D41   D(9,8,11,19)     102.3558  128.0158  111.5414 estimate D2E/DX2         !
 ! D42   D(25,8,11,19)    -76.0186  -50.5278  -66.9071 estimate D2E/DX2         !
 ! D43   D(9,8,25,7)        1.1486    1.6357    2.9883 estimate D2E/DX2         !
 ! D44   D(9,8,25,26)    -178.0382 -178.5168 -176.0389 estimate D2E/DX2         !
 ! D45   D(11,8,25,7)     179.5591 -179.7923 -178.5399 estimate D2E/DX2         !
 ! D46   D(11,8,25,26)      0.3723    0.0552    2.4328 estimate D2E/DX2         !
 ! D47   D(8,9,33,10)       0.792    -0.3199   -1.0696 estimate D2E/DX2         !
 ! D48   D(8,9,33,34)    -177.8166  179.0584  179.0325 estimate D2E/DX2         !
 ! D49   D(12,9,33,10)   -179.4618 -179.7707  179.6995 estimate D2E/DX2         !
 ! D50   D(12,9,33,34)      1.9296   -0.3925   -0.1985 estimate D2E/DX2         !
 ! D51   D(7,10,33,9)       4.3115    4.4392    5.015  estimate D2E/DX2         !
 ! D52   D(7,10,33,34)   -177.0634 -174.9538 -175.0839 estimate D2E/DX2         !
 ! D53   D(56,10,33,9)   -175.7738 -175.8802 -175.1168 estimate D2E/DX2         !
 ! D54   D(56,10,33,34)     2.8513    4.7267    4.7842 estimate D2E/DX2         !
 ! D55   D(8,11,19,16)    140.2713  117.7639   53.3578 estimate D2E/DX2         !
 ! D56   D(62,13,15,16)    12.061     0.4233   89.7844 estimate D2E/DX2         !
 ! D57   D(62,13,15,18)  -168.9021 -179.8178  -89.249  estimate D2E/DX2         !
 ! D58   D(14,13,62,31)     3.9251    1.3918 -178.9573 estimate D2E/DX2         !
 ! D59   D(14,15,16,17)   178.9233  179.857  -178.3155 estimate D2E/DX2         !
 ! D60   D(14,15,16,19)    -0.5016   -0.1263    1.3773 estimate D2E/DX2         !
 ! D61   D(18,15,16,17)    -0.3187    0.0027    0.8132 estimate D2E/DX2         !
 ! D62   D(18,15,16,19)  -179.7437 -179.9806 -179.494  estimate D2E/DX2         !
 ! D63   D(14,15,18,20)     0.6803    0.1848   -1.3207 estimate D2E/DX2         !
 ! D64   D(14,15,18,58)  -179.1814 -179.8524  178.3373 estimate D2E/DX2         !
 ! D65   D(16,15,18,20)   179.9295 -179.9624  179.5513 estimate D2E/DX2         !
 ! D66   D(16,15,18,58)     0.0677    0.0003   -0.7907 estimate D2E/DX2         !
 ! D67   D(15,16,17,29)  -179.4978  179.998   179.6371 estimate D2E/DX2         !
 ! D68   D(15,16,17,57)     0.2569   -0.0077   -0.1502 estimate D2E/DX2         !
 ! D69   D(19,16,17,29)    -0.0827   -0.0189   -0.0534 estimate D2E/DX2         !
 ! D70   D(19,16,17,57)   179.672   179.9755 -179.8408 estimate D2E/DX2         !
 ! D71   D(15,16,19,11)   -57.7157  -64.5372  -76.5178 estimate D2E/DX2         !
 ! D72   D(17,16,19,11)   122.8675  115.4798  103.1717 estimate D2E/DX2         !
 ! D73   D(16,17,57,58)     0.0562    0.0098   -0.5324 estimate D2E/DX2         !
 ! D74   D(16,17,57,60)  -179.9898 -179.988   179.6298 estimate D2E/DX2         !
 ! D75   D(29,17,57,58)   179.8127 -179.9959  179.6812 estimate D2E/DX2         !
 ! D76   D(29,17,57,60)    -0.2333    0.0063   -0.1566 estimate D2E/DX2         !
 ! D77   D(15,18,20,24)   -42.5763  -39.6752   72.2844 estimate D2E/DX2         !
 ! D78   D(15,18,20,61)   -11.5712    2.2233   79.8547 estimate D2E/DX2         !
 ! D79   D(58,18,20,24)   137.2825  140.3632 -107.37   estimate D2E/DX2         !
 ! D80   D(58,18,20,61)   168.2875 -177.7383  -99.7997 estimate D2E/DX2         !
 ! D81   D(15,18,58,57)     0.2484    0.0017    0.1052 estimate D2E/DX2         !
 ! D82   D(15,18,58,59)   179.8937  179.9964 -179.6257 estimate D2E/DX2         !
 ! D83   D(20,18,58,57)  -179.61    179.9635  179.7607 estimate D2E/DX2         !
 ! D84   D(20,18,58,59)     0.0353   -0.0418    0.0298 estimate D2E/DX2         !
 ! D85   D(18,20,24,22)   104.1007  118.348   -46.9348 estimate D2E/DX2         !
 ! D86   D(1,21,27,22)    170.1454  173.7347  176.964  estimate D2E/DX2         !
 ! D87   D(1,21,27,28)     -8.8423   -6.4186   -2.0847 estimate D2E/DX2         !
 ! D88   D(54,21,27,22)    -3.3664   -2.3232   -0.7414 estimate D2E/DX2         !
 ! D89   D(54,21,27,28)   177.6459  177.5235 -179.79   estimate D2E/DX2         !
 ! D90   D(1,21,54,52)   -167.1234 -170.7064 -172.9049 estimate D2E/DX2         !
 ! D91   D(1,21,54,55)     13.0787    9.0522    6.903  estimate D2E/DX2         !
 ! D92   D(27,21,54,52)     6.2948    5.3464    4.8541 estimate D2E/DX2         !
 ! D93   D(27,21,54,55)  -173.5031 -174.895  -175.338  estimate D2E/DX2         !
 ! D94   D(24,22,23,52)  -178.6133 -178.8661 -178.9497 estimate D2E/DX2         !
 ! D95   D(24,22,23,53)     1.7026    1.5972    1.8437 estimate D2E/DX2         !
 ! D96   D(27,22,23,52)     3.0311    2.5283    2.6426 estimate D2E/DX2         !
 ! D97   D(27,22,23,53)  -176.6529 -177.0084 -176.5639 estimate D2E/DX2         !
 ! D98   D(23,22,24,20)  -143.0472 -167.1236 -114.2662 estimate D2E/DX2         !
 ! D99   D(27,22,24,20)    35.2982   11.4793   64.1416 estimate D2E/DX2         !
 ! D100  D(23,22,27,21)    -1.189    -1.5128   -2.9271 estimate D2E/DX2         !
 ! D101  D(23,22,27,28)   177.7561  178.6454  176.0741 estimate D2E/DX2         !
 ! D102  D(24,22,27,21)  -179.5675  179.8569  178.6415 estimate D2E/DX2         !
 ! D103  D(24,22,27,28)    -0.6224    0.0151   -2.3573 estimate D2E/DX2         !
 ! D104  D(22,23,52,48)   178.6985 -179.5503 -179.0167 estimate D2E/DX2         !
 ! D105  D(22,23,52,54)    -0.4305    0.1582    1.0323 estimate D2E/DX2         !
 ! D106  D(53,23,52,48)    -1.6161   -0.0113    0.1935 estimate D2E/DX2         !
 ! D107  D(53,23,52,54)   179.255   179.6972 -179.7574 estimate D2E/DX2         !
 ! D108  D(43,31,39,34)  -171.4912 -171.0588 -171.1073 estimate D2E/DX2         !
 ! D109  D(43,31,39,38)     7.47      7.9929    8.0804 estimate D2E/DX2         !
 ! D110  D(62,31,39,34)  -178.4312 -178.5638   10.4416 estimate D2E/DX2         !
 ! D111  D(62,31,39,38)     0.53      0.4878 -170.3707 estimate D2E/DX2         !
 ! D112  D(63,31,39,34)     7.9377    8.319  -178.7139 estimate D2E/DX2         !
 ! D113  D(63,31,39,38)  -173.1011 -172.6293    0.4738 estimate D2E/DX2         !
 ! D114  D(39,31,43,44)    -7.2528   -8.0368   -8.1047 estimate D2E/DX2         !
 ! D115  D(39,31,43,48)   171.9518  171.0122  171.1092 estimate D2E/DX2         !
 ! D116  D(62,31,43,44)    -0.308    -0.532   170.3468 estimate D2E/DX2         !
 ! D117  D(62,31,43,48)   178.8966  178.517   -10.4393 estimate D2E/DX2         !
 ! D118  D(63,31,43,44)   173.3199  172.5853   -0.4984 estimate D2E/DX2         !
 ! D119  D(63,31,43,48)    -7.4756   -8.3657  178.7155 estimate D2E/DX2         !
 ! D120  D(39,31,62,13)    89.3116   86.7475   89.3766 estimate D2E/DX2         !
 ! D121  D(43,31,62,13)   -84.0273  -86.0571  -89.1292 estimate D2E/DX2         !
 ! D122  D(44,32,38,37)   178.3013  178.0761  178.3863 estimate D2E/DX2         !
 ! D123  D(44,32,38,39)    -2.314    -2.5547   -2.5202 estimate D2E/DX2         !
 ! D124  D(62,32,38,37)    -0.7818   -0.9271 -175.4289 estimate D2E/DX2         !
 ! D125  D(62,32,38,39)   178.6029  178.4421    3.6647 estimate D2E/DX2         !
 ! D126  D(63,32,38,37)  -176.5015 -176.3626   -0.8107 estimate D2E/DX2         !
 ! D127  D(63,32,38,39)     2.8832    3.0066  178.2828 estimate D2E/DX2         !
 ! D128  D(38,32,44,43)     2.537     2.5098    2.496  estimate D2E/DX2         !
 ! D129  D(38,32,44,45)  -178.1089 -178.1172 -178.4259 estimate D2E/DX2         !
 ! D130  D(62,32,44,43)  -178.3793 -178.4869   -3.689  estimate D2E/DX2         !
 ! D131  D(62,32,44,45)     0.9748    0.8861  175.3891 estimate D2E/DX2         !
 ! D132  D(63,32,44,43)    -2.6536   -3.052  -178.3071 estimate D2E/DX2         !
 ! D133  D(63,32,44,45)   176.7005  176.3211    0.771  estimate D2E/DX2         !
 ! D134  D(9,33,34,35)     45.6495   51.0888   50.1007 estimate D2E/DX2         !
 ! D135  D(9,33,34,39)   -136.6463 -131.0271 -132.6936 estimate D2E/DX2         !
 ! D136  D(10,33,34,35)  -132.9015 -129.5527 -129.7941 estimate D2E/DX2         !
 ! D137  D(10,33,34,39)    44.8027   48.3314   47.4115 estimate D2E/DX2         !
 ! D138  D(33,34,35,36)   177.1213  176.8502  176.1599 estimate D2E/DX2         !
 ! D139  D(33,34,35,40)    -0.7795   -0.8529   -1.356  estimate D2E/DX2         !
 ! D140  D(39,34,35,36)    -0.6331   -1.0475   -1.0659 estimate D2E/DX2         !
 ! D141  D(39,34,35,40)  -178.534  -178.7507 -178.5818 estimate D2E/DX2         !
 ! D142  D(33,34,39,31)     4.9402    5.0696    6.0886 estimate D2E/DX2         !
 ! D143  D(33,34,39,38)  -174.014  -173.9738 -173.0931 estimate D2E/DX2         !
 ! D144  D(35,34,39,31)  -177.3345 -177.0086 -176.6552 estimate D2E/DX2         !
 ! D145  D(35,34,39,38)     3.7113    3.9479    4.1631 estimate D2E/DX2         !
 ! D146  D(34,35,36,37)    -2.07     -1.7539   -1.9335 estimate D2E/DX2         !
 ! D147  D(34,35,36,41)   179.7314 -179.946   179.9868 estimate D2E/DX2         !
 ! D148  D(40,35,36,37)   175.8451  175.9639  175.5989 estimate D2E/DX2         !
 ! D149  D(40,35,36,41)    -2.3535   -2.2281   -2.4808 estimate D2E/DX2         !
 ! D150  D(35,36,37,38)     1.569     1.5673    1.7411 estimate D2E/DX2         !
 ! D151  D(35,36,37,42)  -177.9961 -177.994  -177.8964 estimate D2E/DX2         !
 ! D152  D(41,36,37,38)   179.7434  179.737   179.7978 estimate D2E/DX2         !
 ! D153  D(41,36,37,42)     0.1783    0.1757    0.1604 estimate D2E/DX2         !
 ! D154  D(36,37,38,32)  -179.0576 -179.2627 -179.5119 estimate D2E/DX2         !
 ! D155  D(36,37,38,39)     1.5576    1.3667    1.3922 estimate D2E/DX2         !
 ! D156  D(42,37,38,32)     0.5177    0.3067    0.1322 estimate D2E/DX2         !
 ! D157  D(42,37,38,39)  -178.8671 -179.0639 -178.9637 estimate D2E/DX2         !
 ! D158  D(32,38,39,31)    -2.5746   -2.5673   -2.6519 estimate D2E/DX2         !
 ! D159  D(32,38,39,34)   176.4235  176.5107  176.5569 estimate D2E/DX2         !
 ! D160  D(37,38,39,31)   176.8252  176.824   176.4737 estimate D2E/DX2         !
 ! D161  D(37,38,39,34)    -4.1768   -4.0979   -4.3176 estimate D2E/DX2         !
 ! D162  D(31,43,44,32)     2.1303    2.6566    2.6995 estimate D2E/DX2         !
 ! D163  D(31,43,44,45)  -177.239  -176.7383 -176.4112 estimate D2E/DX2         !
 ! D164  D(48,43,44,32)  -177.1036 -176.4191 -176.5346 estimate D2E/DX2         !
 ! D165  D(48,43,44,45)     3.5271    4.186     4.3546 estimate D2E/DX2         !
 ! D166  D(31,43,48,47)   177.5197  176.9457  176.5563 estimate D2E/DX2         !
 ! D167  D(31,43,48,52)    -4.3683   -5.2827   -6.1537 estimate D2E/DX2         !
 ! D168  D(44,43,48,47)    -3.2797   -4.0136   -4.2356 estimate D2E/DX2         !
 ! D169  D(44,43,48,52)   174.8324  173.758   173.0544 estimate D2E/DX2         !
 ! D170  D(32,44,45,46)   179.4109  179.2214  179.5474 estimate D2E/DX2         !
 ! D171  D(32,44,45,49)    -0.2062   -0.3466   -0.1163 estimate D2E/DX2         !
 ! D172  D(43,44,45,46)    -1.2358   -1.4041   -1.3722 estimate D2E/DX2         !
 ! D173  D(43,44,45,49)   179.147   179.0279  178.9641 estimate D2E/DX2         !
 ! D174  D(44,45,46,47)    -1.3422   -1.6024   -1.7832 estimate D2E/DX2         !
 ! D175  D(44,45,46,50)  -179.7651 -179.7387 -179.8274 estimate D2E/DX2         !
 ! D176  D(49,45,46,47)   178.2666  177.9574  177.8742 estimate D2E/DX2         !
 ! D177  D(49,45,46,50)    -0.1563   -0.1789   -0.1699 estimate D2E/DX2         !
 ! D178  D(45,46,47,48)     1.6121    1.8123    1.9391 estimate D2E/DX2         !
 ! D179  D(45,46,47,51)  -176.2309 -175.853  -175.6076 estimate D2E/DX2         !
 ! D180  D(50,46,47,48)  -179.9454  179.9713 -179.9938 estimate D2E/DX2         !
 ! D181  D(50,46,47,51)     2.2116    2.306     2.4595 estimate D2E/DX2         !
 ! D182  D(46,47,48,43)     0.7521    1.0412    1.1177 estimate D2E/DX2         !
 ! D183  D(46,47,48,52)  -177.38   -176.7106 -176.1422 estimate D2E/DX2         !
 ! D184  D(51,47,48,43)   178.5812  178.691   178.648  estimate D2E/DX2         !
 ! D185  D(51,47,48,52)     0.4492    0.9392    1.388  estimate D2E/DX2         !
 ! D186  D(43,48,52,23)   134.5312  131.8205  132.61   estimate D2E/DX2         !
 ! D187  D(43,48,52,54)   -46.3753  -47.8786  -47.4405 estimate D2E/DX2         !
 ! D188  D(47,48,52,23)   -47.3743  -50.4459  -50.15   estimate D2E/DX2         !
 ! D189  D(47,48,52,54)   131.7192  129.855   129.7995 estimate D2E/DX2         !
 ! D190  D(23,52,54,21)    -4.4151   -4.2914   -5.0121 estimate D2E/DX2         !
 ! D191  D(23,52,54,55)   175.3768  175.9547  175.1833 estimate D2E/DX2         !
 ! D192  D(48,52,54,21)   176.4478  175.4238  175.0354 estimate D2E/DX2         !
 ! D193  D(48,52,54,55)    -3.7603   -4.3301   -4.7691 estimate D2E/DX2         !
 ! D194  D(17,57,58,18)    -0.3109   -0.0068    0.5552 estimate D2E/DX2         !
 ! D195  D(17,57,58,59)  -179.9577  179.9986 -179.7151 estimate D2E/DX2         !
 ! D196  D(60,57,58,18)   179.7352  179.991  -179.607  estimate D2E/DX2         !
 ! D197  D(60,57,58,59)     0.0884   -0.0036    0.1226 estimate D2E/DX2         !
 --------------------------------------------------------------------------------
 Trust Radius=3.00D-01 FncErr=1.00D-07 GrdErr=1.00D-06 EigMax=2.50D+02 EigMin=1.00D-04
 Number of steps in this run=    378 maximum allowed number of steps=    378.
 Search for a saddle point of order  1.
 GradGradGradGradGradGradGradGradGradGradGradGradGradGradGradGradGradGrad

 Stoichiometry    C34H21BrMnN3O3
 Framework group  C1[X(C34H21BrMnN3O3)]
 Deg. of freedom   183
 Full point group                 C1      NOp   1
 Largest Abelian subgroup         C1      NOp   1
 Largest concise Abelian subgroup C1      NOp   1
                         Standard orientation:                         
 ---------------------------------------------------------------------
 Center     Atomic      Atomic             Coordinates (Angstroms)
 Number     Number       Type             X           Y           Z
 ---------------------------------------------------------------------
      1         25           0       -1.435795   -1.617978   -0.486492
      2          6           0       -2.279795   -2.070409   -2.053945
      3          8           0       -2.642793   -2.373933   -3.098559
      4          6           0       -2.236932   -2.914169    0.542888
      5          8           0       -2.554218   -3.784460    1.219959
      6          6           0       -0.204357   -2.819700   -0.897553
      7          7           0       -0.355713   -1.096408    1.411753
      8          6           0       -0.446417   -0.155669    3.612094
      9          6           0        0.938812   -0.003510    3.623760
     10          6           0        0.977163   -1.036674    1.472758
     11          1           0       -1.058531    0.164535    4.459748
     12          1           0        1.436818    0.463784    4.477456
     13          7           0       -2.313258    0.337980    0.113168
     14          6           0       -2.721675    1.378914    0.401981
     15          6           0       -3.269762    2.662659    0.756088
     16          6           0       -2.447859    3.790431    0.806032
     17          6           0       -2.998455    5.032516    1.129052
     18          6           0       -4.631704    2.771833    1.033214
     19          1           0       -1.390476    3.688205    0.583323
     20          1           0       -5.254598    1.880869    0.987556
     21          7           0       -0.376239   -0.098098   -1.737184
     22          6           0       -0.454871    1.943761   -2.982771
     23          6           0        0.931501    2.051120   -2.939441
     24          1           0       -1.063641    2.704291   -3.471381
     25          6           0       -1.054398   -0.694012    2.486006
     26          1           0       -2.141651   -0.795887    2.435128
     27          6           0       -1.069174    0.863487   -2.361169
     28          1           0       -2.156791    0.769872   -2.346063
     29          1           0       -2.367657    5.920023    1.162786
     30          8           0        0.570265   -3.632563   -1.168189
     31          6           0        3.211266    0.516619    0.164959
     32          6           0        5.993202    0.356048    0.104559
     33          6           0        1.689179   -0.459715    2.533524
     34          6           0        3.178276   -0.371499    2.502326
     35          6           0        3.908922   -0.749878    3.600958
     36          6           0        5.337504   -0.738635    3.592240
     37          6           0        6.023132   -0.387224    2.465390
     38          6           0        5.316839    0.008855    1.281636
     39          6           0        3.879934    0.063528    1.307362
     40          1           0        3.390175   -1.102031    4.497586
     41          1           0        5.875517   -1.044551    4.493228
     42          1           0        7.117713   -0.407646    2.441503
     43          6           0        3.871450    0.770819   -1.042803
     44          6           0        5.308282    0.709772   -1.064390
     45          6           0        6.006012    1.025737   -2.278368
     46          6           0        5.313305    1.355575   -3.406089
     47          6           0        3.884979    1.363699   -3.403697
     48          6           0        3.162574    1.075535   -2.271601
     49          1           0        7.100425    0.990199   -2.281144
     50          1           0        5.845171    1.592600   -4.332160
     51          1           0        3.358198    1.571384   -4.338952
     52          6           0        1.673504    1.038299   -2.328195
     53          1           0        1.437343    2.919271   -3.373168
     54          6           0        0.954760   -0.034617   -1.780998
     55          1           0        1.494052   -0.883395   -1.361806
     56          1           0        1.525709   -1.469217    0.632517
     57          6           0       -4.352899    5.146812    1.404345
     58          6           0       -5.166890    4.019799    1.359886
     59          1           0       -6.225752    4.115661    1.575525
     60          1           0       -4.779453    6.126156    1.657435
     61         35           0       -4.471229   -1.614171   -0.411651
     62          1           0        7.088624    0.336110    0.093649
     63          1           0        2.134678    0.667884    0.217247
 ---------------------------------------------------------------------
 Rotational constants (GHZ):           0.0984325           0.0505689           0.0491507
 General basis read from cards:  (5D, 7F)
 There are   802 symmetry adapted cartesian basis functions of A   symmetry.
 There are   751 symmetry adapted basis functions of A   symmetry.
   751 basis functions,  1339 primitive gaussians,   802 cartesian basis functions
   165 alpha electrons      165 beta electrons
       nuclear repulsion energy      6026.4161185722 Hartrees.
 NAtoms=   63 NActive=   63 NUniq=   63 SFac= 1.00D+00 NAtFMM=   60 NAOKFM=T Big=T
 Integral buffers will be    131072 words long.
 Raffenetti 2 integral format.
 Two-electron integral symmetry is turned on.
 Nuclear repulsion after empirical dispersion term =     6026.3521040298 Hartrees.
 ------------------------------------------------------------------------------
 Polarizable Continuum Model (PCM)
 =================================
 Model                : PCM.
 Atomic radii         : UFF (Universal Force Field).
 Polarization charges : Total charges.
 Charge compensation  : None.
 Solution method      : On-the-fly selection.
 Cavity type          : Scaled VdW (van der Waals Surface) (Alpha=1.100).
 Cavity algorithm     : GePol (No added spheres)
                        Default sphere list used, NSphG=   63.
                        Lebedev-Laikov grids with approx.  5.0 points / Ang**2.
                        Smoothing algorithm: York/Karplus (Gamma=1.0000).
                        Polarization charges: spherical gaussians, with
                                              point-specific exponents (IZeta= 3).
                        Self-potential: point-specific (ISelfS= 7).
                        Self-field    : sphere-specific E.n sum rule (ISelfD= 2).
 1st derivatives      : Analytical E(r).r(x)/FMM algorithm (CHGder, D1EAlg=3).
                        Cavity 1st derivative terms included.
 Solvent              : TetraHydroFuran, Eps=   7.425700 Eps(inf)=   1.974025
 ------------------------------------------------------------------------------
 One-electron integrals computed using PRISM.
 PrsmSu:  requested number of processors reduced to:  11 ShMem   1 Linda.
 NBasis=   751 RedAO= T EigKep=  2.28D-04  NBF=   751
 NBsUse=   751 1.00D-06 EigRej= -1.00D+00 NBFU=   751
 ExpMin= 3.93D-02 ExpMax= 2.77D+05 ExpMxC= 1.70D+04 IAcc=3 IRadAn=         5 AccDes= 0.00D+00
 Harris functional with IExCor= 4639 and IRadAn=       5 diagonalized for initial guess.
 HarFok:  IExCor= 4639 AccDes= 0.00D+00 IRadAn=         5 IDoV= 1 UseB2=F ITyADJ=14
 ICtDFT=  3500011 ScaDFX=  1.000000  1.000000  1.000000  1.000000
 FoFCou: FMM=F IPFlag=           0 FMFlag=      100000 FMFlg1=        2001
         NFxFlg=           0 DoJE=T BraDBF=F KetDBF=T FulRan=T
         wScrn=  0.000000 ICntrl=       500 IOpCl=  0 I1Cent=   200000004 NGrid=           0
         NMat0=    1 NMatS0=      1 NMatT0=    0 NMatD0=    1 NMtDS0=    0 NMtDT0=    0
 Petite list used in FoFCou.
 Requested convergence on RMS density matrix=1.00D-08 within 128 cycles.
 Requested convergence on MAX density matrix=1.00D-06.
 Requested convergence on             energy=1.00D-06.
 No special actions if energy rises.
 CoulSu:  requested number of processors reduced to:   9 ShMem   1 Linda.
 Inv3:  Mode=1 IEnd=    68344587.
 Iteration    1 A*A^-1 deviation from unit magnitude is 3.66D-15 for    741.
 Iteration    1 A*A^-1 deviation from orthogonality  is 2.22D-15 for   4407   1635.
 Iteration    1 A^-1*A deviation from unit magnitude is 3.44D-15 for    741.
 Iteration    1 A^-1*A deviation from orthogonality  is 2.22D-15 for   3335   2075.
 CoulSu:  requested number of processors reduced to:   9 ShMem   1 Linda.
 CoulSu:  requested number of processors reduced to:   9 ShMem   1 Linda.
 Error on total polarization charges =  0.02023
 SCF Done:  E(RwB97XD) =  -5421.43016530     A.U. after   20 cycles
            NFock= 20  Conv=0.70D-08     -V/T= 2.0041

 **********************************************************************

            Population analysis using the SCF density.

 **********************************************************************

 Orbital symmetries:
       Occupied  (A) (A) (A) (A) (A) (A) (A) (A) (A) (A) (A) (A)
                 (A) (A) (A) (A) (A) (A) (A) (A) (A) (A) (A) (A)
                 (A) (A) (A) (A) (A) (A) (A) (A) (A) (A) (A) (A)
                 (A) (A) (A) (A) (A) (A) (A) (A) (A) (A) (A) (A)
                 (A) (A) (A) (A) (A) (A) (A) (A) (A) (A) (A) (A)
                 (A) (A) (A) (A) (A) (A) (A) (A) (A) (A) (A) (A)
                 (A) (A) (A) (A) (A) (A) (A) (A) (A) (A) (A) (A)
                 (A) (A) (A) (A) (A) (A) (A) (A) (A) (A) (A) (A)
                 (A) (A) (A) (A) (A) (A) (A) (A) (A) (A) (A) (A)
                 (A) (A) (A) (A) (A) (A) (A) (A) (A) (A) (A) (A)
                 (A) (A) (A) (A) (A) (A) (A) (A) (A) (A) (A) (A)
                 (A) (A) (A) (A) (A) (A) (A) (A) (A) (A) (A) (A)
                 (A) (A) (A) (A) (A) (A) (A) (A) (A) (A) (A) (A)
                 (A) (A) (A) (A) (A) (A) (A) (A) (A)
       Virtual   (A) (A) (A) (A) (A) (A) (A) (A) (A) (A) (A) (A)
                 (A) (A) (A) (A) (A) (A) (A) (A) (A) (A) (A) (A)
                 (A) (A) (A) (A) (A) (A) (A) (A) (A) (A) (A) (A)
                 (A) (A) (A) (A) (A) (A) (A) (A) (A) (A) (A) (A)
                 (A) (A) (A) (A) (A) (A) (A) (A) (A) (A) (A) (A)
                 (A) (A) (A) (A) (A) (A) (A) (A) (A) (A) (A) (A)
                 (A) (A) (A) (A) (A) (A) (A) (A) (A) (A) (A) (A)
                 (A) (A) (A) (A) (A) (A) (A) (A) (A) (A) (A) (A)
                 (A) (A) (A) (A) (A) (A) (A) (A) (A) (A) (A) (A)
                 (A) (A) (A) (A) (A) (A) (A) (A) (A) (A) (A) (A)
                 (A) (A) (A) (A) (A) (A) (A) (A) (A) (A) (A) (A)
                 (A) (A) (A) (A) (A) (A) (A) (A) (A) (A) (A) (A)
                 (A) (A) (A) (A) (A) (A) (A) (A) (A) (A) (A) (A)
                 (A) (A) (A) (A) (A) (A) (A) (A) (A) (A) (A) (A)
                 (A) (A) (A) (A) (A) (A) (A) (A) (A) (A) (A) (A)
                 (A) (A) (A) (A) (A) (A) (A) (A) (A) (A) (A) (A)
                 (A) (A) (A) (A) (A) (A) (A) (A) (A) (A) (A) (A)
                 (A) (A) (A) (A) (A) (A) (A) (A) (A) (A) (A) (A)
                 (A) (A) (A) (A) (A) (A) (A) (A) (A) (A) (A) (A)
                 (A) (A) (A) (A) (A) (A) (A) (A) (A) (A) (A) (A)
                 (A) (A) (A) (A) (A) (A) (A) (A) (A) (A) (A) (A)
                 (A) (A) (A) (A) (A) (A) (A) (A) (A) (A) (A) (A)
                 (A) (A) (A) (A) (A) (A) (A) (A) (A) (A) (A) (A)
                 (A) (A) (A) (A) (A) (A) (A) (A) (A) (A) (A) (A)
                 (A) (A) (A) (A) (A) (A) (A) (A) (A) (A) (A) (A)
                 (A) (A) (A) (A) (A) (A) (A) (A) (A) (A) (A) (A)
                 (A) (A) (A) (A) (A) (A) (A) (A) (A) (A) (A) (A)
                 (A) (A) (A) (A) (A) (A) (A) (A) (A) (A) (A) (A)
                 (A) (A) (A) (A) (A) (A) (A) (A) (A) (A) (A) (A)
                 (A) (A) (A) (A) (A) (A) (A) (A) (A) (A) (A) (A)
                 (A) (A) (A) (A) (A) (A) (A) (A) (A) (A) (A) (A)
                 (A) (A) (A) (A) (A) (A) (A) (A) (A) (A) (A) (A)
                 (A) (A) (A) (A) (A) (A) (A) (A) (A) (A) (A) (A)
                 (A) (A) (A) (A) (A) (A) (A) (A) (A) (A) (A) (A)
                 (A) (A) (A) (A) (A) (A) (A) (A) (A) (A) (A) (A)
                 (A) (A) (A) (A) (A) (A) (A) (A) (A) (A) (A) (A)
                 (A) (A) (A) (A) (A) (A) (A) (A) (A) (A) (A) (A)
                 (A) (A) (A) (A) (A) (A) (A) (A) (A) (A) (A) (A)
                 (A) (A) (A) (A) (A) (A) (A) (A) (A) (A) (A) (A)
                 (A) (A) (A) (A) (A) (A) (A) (A) (A) (A) (A) (A)
                 (A) (A) (A) (A) (A) (A) (A) (A) (A) (A) (A) (A)
                 (A) (A) (A) (A) (A) (A) (A) (A) (A) (A) (A) (A)
                 (A) (A) (A) (A) (A) (A) (A) (A) (A) (A) (A) (A)
                 (A) (A) (A) (A) (A) (A) (A) (A) (A) (A) (A) (A)
                 (A) (A) (A) (A) (A) (A) (A) (A) (A) (A) (A) (A)
                 (A) (A) (A) (A) (A) (A) (A) (A) (A) (A) (A) (A)
                 (A) (A) (A) (A) (A) (A) (A) (A) (A) (A) (A) (A)
                 (A) (A) (A) (A) (A) (A) (A) (A) (A) (A) (A) (A)
                 (A) (A) (A) (A) (A) (A) (A) (A) (A) (A)
 The electronic state is 1-A.
 Alpha  occ. eigenvalues -- -482.96094-235.68972 -62.54154 -56.34727 -56.34703
 Alpha  occ. eigenvalues --  -56.34685 -27.45678 -23.51542 -23.51477 -23.51019
 Alpha  occ. eigenvalues --  -19.32599 -19.32540 -19.32531 -14.49759 -14.49745
 Alpha  occ. eigenvalues --  -14.48081 -10.40629 -10.40607 -10.40246 -10.37442
 Alpha  occ. eigenvalues --  -10.36600 -10.36591 -10.36107 -10.36085 -10.35853
 Alpha  occ. eigenvalues --  -10.34384 -10.34355 -10.34245 -10.34225 -10.33639
 Alpha  occ. eigenvalues --  -10.33497 -10.33475 -10.33434 -10.33247 -10.33245
 Alpha  occ. eigenvalues --  -10.33099 -10.33090 -10.32788 -10.32785 -10.32763
 Alpha  occ. eigenvalues --  -10.32517 -10.32410 -10.32203 -10.32201 -10.32020
 Alpha  occ. eigenvalues --  -10.31988 -10.31920 -10.31917 -10.31766 -10.31764
 Alpha  occ. eigenvalues --   -8.70943  -6.52699  -6.52606  -6.52543  -3.25076
 Alpha  occ. eigenvalues --   -2.63204  -2.63190  -2.63139  -2.63065  -2.63060
 Alpha  occ. eigenvalues --   -2.10820  -2.10458  -2.09613  -1.21552  -1.21450
 Alpha  occ. eigenvalues --   -1.21133  -1.07908  -1.07583  -1.03532  -1.00014
 Alpha  occ. eigenvalues --   -0.98401  -0.97326  -0.94090  -0.92891  -0.91137
 Alpha  occ. eigenvalues --   -0.90457  -0.89444  -0.88745  -0.87135  -0.86522
 Alpha  occ. eigenvalues --   -0.84994  -0.84762  -0.81718  -0.76485  -0.76360
 Alpha  occ. eigenvalues --   -0.75482  -0.75087  -0.74979  -0.74848  -0.74072
 Alpha  occ. eigenvalues --   -0.72510  -0.72040  -0.69923  -0.68710  -0.67092
 Alpha  occ. eigenvalues --   -0.66068  -0.64463  -0.64378  -0.64208  -0.63664
 Alpha  occ. eigenvalues --   -0.63439  -0.62341  -0.61810  -0.60588  -0.59684
 Alpha  occ. eigenvalues --   -0.59599  -0.57653  -0.57432  -0.57364  -0.57038
 Alpha  occ. eigenvalues --   -0.56195  -0.55866  -0.55629  -0.55402  -0.55352
 Alpha  occ. eigenvalues --   -0.54905  -0.54558  -0.54410  -0.53916  -0.53890
 Alpha  occ. eigenvalues --   -0.53272  -0.53105  -0.53062  -0.52677  -0.52204
 Alpha  occ. eigenvalues --   -0.52168  -0.51649  -0.51182  -0.51045  -0.50903
 Alpha  occ. eigenvalues --   -0.50832  -0.50751  -0.49921  -0.49394  -0.49092
 Alpha  occ. eigenvalues --   -0.48364  -0.48237  -0.47428  -0.47094  -0.46914
 Alpha  occ. eigenvalues --   -0.46265  -0.45790  -0.44709  -0.44580  -0.43501
 Alpha  occ. eigenvalues --   -0.42771  -0.41728  -0.40863  -0.40535  -0.40324
 Alpha  occ. eigenvalues --   -0.39817  -0.39182  -0.37621  -0.36302  -0.35955
 Alpha  occ. eigenvalues --   -0.35716  -0.33584  -0.33392  -0.33171  -0.31914
 Alpha  occ. eigenvalues --   -0.31052  -0.29811  -0.29635  -0.27894  -0.26651
 Alpha virt. eigenvalues --   -0.02890  -0.00210   0.00526   0.00720   0.02063
 Alpha virt. eigenvalues --    0.02253   0.02503   0.03639   0.04482   0.05150
 Alpha virt. eigenvalues --    0.06022   0.06862   0.07770   0.08220   0.08914
 Alpha virt. eigenvalues --    0.09201   0.09439   0.09793   0.11642   0.11945
 Alpha virt. eigenvalues --    0.12649   0.13116   0.13416   0.13650   0.14038
 Alpha virt. eigenvalues --    0.14430   0.14709   0.15290   0.15433   0.16072
 Alpha virt. eigenvalues --    0.16407   0.16604   0.17369   0.18242   0.18831
 Alpha virt. eigenvalues --    0.18967   0.19598   0.19827   0.20423   0.20709
 Alpha virt. eigenvalues --    0.21032   0.21872   0.22108   0.22371   0.22795
 Alpha virt. eigenvalues --    0.22929   0.23044   0.23348   0.24712   0.25137
 Alpha virt. eigenvalues --    0.26562   0.27180   0.27576   0.28008   0.28731
 Alpha virt. eigenvalues --    0.29288   0.30070   0.30163   0.30523   0.30772
 Alpha virt. eigenvalues --    0.31402   0.31911   0.32283   0.32945   0.33041
 Alpha virt. eigenvalues --    0.33155   0.33336   0.34060   0.34187   0.34405
 Alpha virt. eigenvalues --    0.34494   0.35240   0.35549   0.35813   0.35945
 Alpha virt. eigenvalues --    0.36356   0.36563   0.36884   0.36958   0.37534
 Alpha virt. eigenvalues --    0.38293   0.38331   0.39223   0.39550   0.40100
 Alpha virt. eigenvalues --    0.40232   0.40667   0.41834   0.41929   0.42212
 Alpha virt. eigenvalues --    0.42447   0.42610   0.42650   0.43970   0.44404
 Alpha virt. eigenvalues --    0.44562   0.46196   0.46470   0.47004   0.47309
 Alpha virt. eigenvalues --    0.47576   0.48239   0.48355   0.48979   0.49379
 Alpha virt. eigenvalues --    0.50189   0.50222   0.51085   0.51310   0.51530
 Alpha virt. eigenvalues --    0.52313   0.52446   0.52803   0.52920   0.53026
 Alpha virt. eigenvalues --    0.53347   0.53477   0.54463   0.54478   0.55035
 Alpha virt. eigenvalues --    0.55141   0.55503   0.55923   0.56039   0.56321
 Alpha virt. eigenvalues --    0.56751   0.57034   0.57806   0.57996   0.58353
 Alpha virt. eigenvalues --    0.58752   0.59001   0.59747   0.60110   0.60408
 Alpha virt. eigenvalues --    0.60762   0.61457   0.61656   0.62202   0.62514
 Alpha virt. eigenvalues --    0.62945   0.63751   0.64211   0.64541   0.64740
 Alpha virt. eigenvalues --    0.65531   0.66245   0.66689   0.67038   0.67326
 Alpha virt. eigenvalues --    0.67810   0.68385   0.68500   0.68660   0.69157
 Alpha virt. eigenvalues --    0.69972   0.70251   0.70504   0.70980   0.71530
 Alpha virt. eigenvalues --    0.72043   0.72059   0.72228   0.72536   0.72761
 Alpha virt. eigenvalues --    0.72861   0.73197   0.73523   0.73595   0.73878
 Alpha virt. eigenvalues --    0.74523   0.74738   0.75031   0.75312   0.75453
 Alpha virt. eigenvalues --    0.75804   0.76022   0.76174   0.76680   0.76984
 Alpha virt. eigenvalues --    0.77096   0.77192   0.77428   0.78085   0.78678
 Alpha virt. eigenvalues --    0.79295   0.79335   0.79439   0.79781   0.80148
 Alpha virt. eigenvalues --    0.80369   0.80989   0.81298   0.81379   0.81984
 Alpha virt. eigenvalues --    0.82027   0.82595   0.82996   0.83188   0.83684
 Alpha virt. eigenvalues --    0.83905   0.84526   0.84882   0.85304   0.85568
 Alpha virt. eigenvalues --    0.85856   0.85925   0.86114   0.86949   0.87124
 Alpha virt. eigenvalues --    0.87741   0.88033   0.88671   0.88889   0.89647
 Alpha virt. eigenvalues --    0.90376   0.90675   0.90786   0.91148   0.91395
 Alpha virt. eigenvalues --    0.91915   0.92289   0.92781   0.93805   0.94309
 Alpha virt. eigenvalues --    0.94429   0.94921   0.95555   0.96380   0.96509
 Alpha virt. eigenvalues --    0.97417   0.97692   0.97744   0.97925   0.98655
 Alpha virt. eigenvalues --    0.99381   1.00463   1.01763   1.01877   1.02172
 Alpha virt. eigenvalues --    1.03214   1.03942   1.04324   1.05209   1.07167
 Alpha virt. eigenvalues --    1.08161   1.08688   1.09633   1.10826   1.11851
 Alpha virt. eigenvalues --    1.12281   1.13577   1.14571   1.15191   1.15566
 Alpha virt. eigenvalues --    1.16046   1.16457   1.16805   1.16964   1.17281
 Alpha virt. eigenvalues --    1.17991   1.18255   1.19344   1.21129   1.21720
 Alpha virt. eigenvalues --    1.22605   1.23044   1.24328   1.25036   1.26022
 Alpha virt. eigenvalues --    1.26396   1.26479   1.27424   1.27988   1.28253
 Alpha virt. eigenvalues --    1.29033   1.29646   1.29947   1.30103   1.30420
 Alpha virt. eigenvalues --    1.30538   1.30884   1.31545   1.31687   1.32072
 Alpha virt. eigenvalues --    1.32240   1.33458   1.33711   1.34331   1.34552
 Alpha virt. eigenvalues --    1.35123   1.35470   1.35832   1.35970   1.36138
 Alpha virt. eigenvalues --    1.36384   1.36639   1.37065   1.38389   1.38895
 Alpha virt. eigenvalues --    1.39106   1.39582   1.41291   1.41621   1.41847
 Alpha virt. eigenvalues --    1.42675   1.44128   1.44480   1.45094   1.46326
 Alpha virt. eigenvalues --    1.47294   1.47504   1.50609   1.50635   1.52139
 Alpha virt. eigenvalues --    1.54206   1.55305   1.55834   1.58984   1.59513
 Alpha virt. eigenvalues --    1.60185   1.61631   1.63302   1.64050   1.65343
 Alpha virt. eigenvalues --    1.66639   1.66901   1.67675   1.67940   1.68752
 Alpha virt. eigenvalues --    1.70769   1.71726   1.72620   1.72997   1.73178
 Alpha virt. eigenvalues --    1.73513   1.73796   1.73897   1.74360   1.74914
 Alpha virt. eigenvalues --    1.75278   1.76844   1.76957   1.77321   1.78153
 Alpha virt. eigenvalues --    1.78283   1.78477   1.79085   1.79183   1.79686
 Alpha virt. eigenvalues --    1.79871   1.80642   1.80779   1.80961   1.81198
 Alpha virt. eigenvalues --    1.81549   1.81624   1.81930   1.82106   1.82126
 Alpha virt. eigenvalues --    1.82349   1.82883   1.83074   1.83280   1.83642
 Alpha virt. eigenvalues --    1.83753   1.84156   1.84545   1.85311   1.85801
 Alpha virt. eigenvalues --    1.86081   1.86323   1.86889   1.87573   1.88122
 Alpha virt. eigenvalues --    1.88539   1.89540   1.89852   1.90193   1.90427
 Alpha virt. eigenvalues --    1.90951   1.91023   1.92317   1.92958   1.93838
 Alpha virt. eigenvalues --    1.94718   1.95048   1.95879   1.96182   1.97045
 Alpha virt. eigenvalues --    1.97392   1.97675   1.97943   1.99444   1.99502
 Alpha virt. eigenvalues --    2.00598   2.00813   2.01284   2.01507   2.02530
 Alpha virt. eigenvalues --    2.03030   2.03113   2.03751   2.04013   2.04343
 Alpha virt. eigenvalues --    2.04932   2.05580   2.05867   2.05931   2.06924
 Alpha virt. eigenvalues --    2.07960   2.08441   2.09253   2.09627   2.10198
 Alpha virt. eigenvalues --    2.10493   2.11249   2.11943   2.13815   2.14278
 Alpha virt. eigenvalues --    2.14755   2.15162   2.15966   2.16710   2.16993
 Alpha virt. eigenvalues --    2.17766   2.18305   2.18894   2.18928   2.19892
 Alpha virt. eigenvalues --    2.20476   2.20679   2.21072   2.21698   2.23007
 Alpha virt. eigenvalues --    2.23693   2.23893   2.24421   2.25417   2.26554
 Alpha virt. eigenvalues --    2.27255   2.29531   2.29791   2.30340   2.31267
 Alpha virt. eigenvalues --    2.31424   2.31943   2.32507   2.34062   2.34652
 Alpha virt. eigenvalues --    2.35130   2.36193   2.36599   2.36704   2.37407
 Alpha virt. eigenvalues --    2.37824   2.37997   2.38660   2.39301   2.39476
 Alpha virt. eigenvalues --    2.40304   2.40455   2.41869   2.42419   2.42733
 Alpha virt. eigenvalues --    2.44036   2.44923   2.45352   2.46122   2.46806
 Alpha virt. eigenvalues --    2.47756   2.48267   2.49966   2.50307   2.50679
 Alpha virt. eigenvalues --    2.53717   2.55222   2.56837   2.57109   2.59424
 Alpha virt. eigenvalues --    2.60441   2.60706   2.61459   2.63874   2.64478
 Alpha virt. eigenvalues --    2.65983   2.66208   2.66720   2.67595   2.67640
 Alpha virt. eigenvalues --    2.67940   2.68204   2.71039   2.71242   2.71414
 Alpha virt. eigenvalues --    2.71473   2.71516   2.71827   2.72116   2.72174
 Alpha virt. eigenvalues --    2.72536   2.72761   2.73974   2.74483   2.74612
 Alpha virt. eigenvalues --    2.75495   2.78053   2.79148   2.79571   2.79907
 Alpha virt. eigenvalues --    2.80194   2.80316   2.81665   2.81689   2.82095
 Alpha virt. eigenvalues --    2.84489   2.85442   2.86325   2.86399   2.87024
 Alpha virt. eigenvalues --    2.87630   2.89510   2.91617   2.91845   2.95710
 Alpha virt. eigenvalues --    2.95804   2.97494   2.98057   2.99425   3.01111
 Alpha virt. eigenvalues --    3.02876   3.04959   3.05895   3.06185   3.07448
 Alpha virt. eigenvalues --    3.07775   3.09456   3.09899   3.11698   3.12407
 Alpha virt. eigenvalues --    3.15805   3.16147   3.19192   3.19610   3.20512
 Alpha virt. eigenvalues --    3.20824   3.21077   3.22966   3.23024   3.24840
 Alpha virt. eigenvalues --    3.25882   3.30247   3.30841   3.32472   3.34025
 Alpha virt. eigenvalues --    3.38071   3.39643   3.41962   3.47556   3.48978
 Alpha virt. eigenvalues --    3.50373   3.50621   3.54867   3.58248   3.61462
 Alpha virt. eigenvalues --    3.61998   3.62996   3.63610   3.64513   3.65855
 Alpha virt. eigenvalues --    3.66407   3.67216   3.69783   3.71673   3.72449
 Alpha virt. eigenvalues --    3.76401   3.76840   3.77355   3.83497   3.83783
 Alpha virt. eigenvalues --    3.90379   3.95046   3.95354   4.00763   4.03761
 Alpha virt. eigenvalues --    4.14511
          Condensed to atoms (all electrons):
 Mulliken charges:
               1
     1  Mn  -0.651558
     2  C    0.336992
     3  O   -0.073855
     4  C    0.334441
     5  O   -0.075986
     6  C    0.305689
     7  N   -0.208763
     8  C   -0.040103
     9  C    0.039028
    10  C    0.090667
    11  H    0.062011
    12  H    0.054214
    13  N    0.086031
    14  C   -0.002241
    15  C   -0.155498
    16  C    0.028182
    17  C   -0.024084
    18  C    0.025724
    19  H    0.042166
    20  H    0.065676
    21  N   -0.204727
    22  C   -0.038578
    23  C    0.040554
    24  H    0.059825
    25  C    0.101775
    26  H    0.085258
    27  C    0.099490
    28  H    0.083873
    29  H    0.051139
    30  O   -0.094488
    31  C   -0.178646
    32  C   -0.084748
    33  C   -0.044820
    34  C    0.063527
    35  C   -0.066769
    36  C   -0.018998
    37  C   -0.019024
    38  C    0.015240
    39  C    0.081001
    40  H    0.035923
    41  H    0.043541
    42  H    0.032668
    43  C    0.082641
    44  C    0.015229
    45  C   -0.018720
    46  C   -0.019554
    47  C   -0.064735
    48  C    0.059544
    49  H    0.032640
    50  H    0.043942
    51  H    0.035227
    52  C   -0.046896
    53  H    0.054600
    54  C    0.091820
    55  H    0.059588
    56  H    0.061880
    57  C   -0.005204
    58  C   -0.019866
    59  H    0.050728
    60  H    0.057874
    61  Br  -0.817596
    62  H    0.021767
    63  H    0.043345
 Sum of Mulliken charges =  -0.00000
 Mulliken charges with hydrogens summed into heavy atoms:
               1
     1  Mn  -0.651558
     2  C    0.336992
     3  O   -0.073855
     4  C    0.334441
     5  O   -0.075986
     6  C    0.305689
     7  N   -0.208763
     8  C    0.021909
     9  C    0.093242
    10  C    0.152548
    13  N    0.086031
    14  C   -0.002241
    15  C   -0.155498
    16  C    0.070348
    17  C    0.027055
    18  C    0.091400
    21  N   -0.204727
    22  C    0.021247
    23  C    0.095153
    25  C    0.187033
    27  C    0.183363
    30  O   -0.094488
    31  C   -0.135301
    32  C   -0.062982
    33  C   -0.044820
    34  C    0.063527
    35  C   -0.030846
    36  C    0.024543
    37  C    0.013645
    38  C    0.015240
    39  C    0.081001
    43  C    0.082641
    44  C    0.015229
    45  C    0.013920
    46  C    0.024388
    47  C   -0.029508
    48  C    0.059544
    52  C   -0.046896
    54  C    0.151408
    57  C    0.052670
    58  C    0.030862
    61  Br  -0.817596
 Electronic spatial extent (au):  <R**2>=          24059.1737
 Charge=             -0.0000 electrons
 Dipole moment (field-independent basis, Debye):
    X=             14.8951    Y=             15.2788    Z=              4.3143  Tot=             21.7697
 Quadrupole moment (field-independent basis, Debye-Ang):
   XX=           -279.0371   YY=           -254.6325   ZZ=           -225.1818
   XY=            -50.1017   XZ=            -15.3565   YZ=            -11.3582
 Traceless Quadrupole moment (field-independent basis, Debye-Ang):
   XX=            -26.0866   YY=             -1.6821   ZZ=             27.7686
   XY=            -50.1017   XZ=            -15.3565   YZ=            -11.3582
 Octapole moment (field-independent basis, Debye-Ang**2):
  XXX=            320.4415  YYY=            119.9698  ZZZ=             29.2419  XYY=           -115.5751
  XXY=            214.2150  XXZ=             71.6091  XZZ=             32.6769  YZZ=             21.3151
  YYZ=              6.7499  XYZ=            -52.6935
 Hexadecapole moment (field-independent basis, Debye-Ang**3):
 XXXX=         -17575.9833 YYYY=          -6185.7038 ZZZZ=          -5929.8081 XXXY=           -939.7813
 XXXZ=           -341.5262 YYYX=           -439.6473 YYYZ=            242.2862 ZZZX=             47.9374
 ZZZY=           -233.3006 XXYY=          -4189.8613 XXZZ=          -3778.4796 YYZZ=          -2212.4160
 XXYZ=            -61.8089 YYXZ=           -168.3227 ZZXY=             32.3048
 N-N= 6.026352104030D+03 E-N=-2.488179949956D+04  KE= 5.399344633518D+03
 PrsmSu:  requested number of processors reduced to:  11 ShMem   1 Linda.
 D1PCM: PCM CHGder 1st derivatives, ID1Alg=3 FixD1E=F DoIter=F DoCFld=F I1PDM=0.
 CoulSu:  requested number of processors reduced to:  10 ShMem   1 Linda.
 CoulSu:  requested number of processors reduced to:  10 ShMem   1 Linda.
[...]
   D52       -3.05672   0.00018   0.00000   0.00187   0.00182  -3.05490
   D53       -3.07108  -0.00006   0.00000  -0.00088  -0.00088  -3.07196
   D54        0.08188   0.00002   0.00000   0.00225   0.00221   0.08409
   D55        2.92672   0.00129   0.00000  -0.02702  -0.02696   2.89976
   D56       -0.13864   0.00015   0.00000  -0.03312  -0.03304  -0.17168
   D57        2.95538   0.00023   0.00000  -0.04057  -0.04067   2.91471
   D58        1.36186   0.00002   0.00000  -0.01123  -0.01115   1.35071
   D59        3.12446  -0.00036   0.00000  -0.00140  -0.00146   3.12300
   D60       -0.00415  -0.00070   0.00000   0.00347   0.00353  -0.00063
   D61        0.00709  -0.00041   0.00000   0.00415   0.00426   0.01136
   D62       -3.12152  -0.00075   0.00000   0.00902   0.00926  -3.11226
   D63        0.01029   0.00026   0.00000   0.00451   0.00464   0.01493
   D64       -3.12750   0.00028   0.00000   0.00140   0.00147  -3.12603
   D65        3.12692   0.00030   0.00000  -0.00123  -0.00128   3.12564
   D66       -0.01087   0.00032   0.00000  -0.00434  -0.00445  -0.01532
   D67       -3.13892   0.00002   0.00000  -0.00014  -0.00015  -3.13907
   D68        0.00175   0.00020   0.00000  -0.00105  -0.00110   0.00065
   D69       -0.01025   0.00037   0.00000  -0.00494  -0.00505  -0.01529
   D70        3.13042   0.00055   0.00000  -0.00585  -0.00599   3.12442
   D71       -1.17739  -0.00081   0.00000  -0.03053  -0.03055  -1.20794
   D72        1.97719  -0.00114   0.00000  -0.02569  -0.02559   1.95160
   D73       -0.00675   0.00010   0.00000  -0.00182  -0.00185  -0.00860
   D74        3.13874  -0.00007   0.00000  -0.00074  -0.00073   3.13801
   D75        3.13391   0.00028   0.00000  -0.00274  -0.00281   3.13110
   D76       -0.00379   0.00011   0.00000  -0.00165  -0.00168  -0.00547
   D77       -1.10217  -0.00084   0.00000  -0.02183  -0.02193  -1.12411
   D78       -0.05167   0.00031   0.00000   0.01599   0.01608  -0.03560
   D79        2.03560  -0.00087   0.00000  -0.01869  -0.01875   2.01685
   D80        3.08610   0.00028   0.00000   0.01913   0.01926   3.10536
   D81        0.00588  -0.00003   0.00000   0.00147   0.00151   0.00738
   D82       -3.13816  -0.00009   0.00000   0.00169   0.00172  -3.13643
   D83       -3.13196  -0.00000   0.00000  -0.00162  -0.00162  -3.13358
   D84        0.00719  -0.00007   0.00000  -0.00140  -0.00141   0.00578
   D85        0.93005   0.00002   0.00000   0.00531   0.00562   0.93567
   D86        2.95909  -0.00007   0.00000  -0.00866  -0.00864   2.95044
   D87       -0.16059  -0.00009   0.00000  -0.00715  -0.00712  -0.16771
   D88       -0.07876  -0.00007   0.00000  -0.00469  -0.00471  -0.08347
   D89        3.08475  -0.00009   0.00000  -0.00319  -0.00319   3.08156
   D90       -2.90813   0.00010   0.00000   0.00615   0.00612  -2.90201
   D91        0.22507  -0.00001   0.00000   0.00418   0.00418   0.22924
   D92        0.12413   0.00012   0.00000   0.00197   0.00196   0.12608
   D93       -3.02586   0.00001   0.00000  -0.00000   0.00002  -3.02585
   D94       -3.10221  -0.00028   0.00000  -0.00083  -0.00084  -3.10305
   D95        0.03739  -0.00014   0.00000  -0.00042  -0.00045   0.03694
   D96        0.06136  -0.00000   0.00000   0.00031   0.00031   0.06167
   D97       -3.08223   0.00013   0.00000   0.00072   0.00070  -3.08152
   D98       -2.03012  -0.00022   0.00000  -0.02983  -0.02991  -2.06003
   D99        1.08945  -0.00050   0.00000  -0.03098  -0.03106   1.05839
   D100      -0.01171   0.00002   0.00000   0.00358   0.00361  -0.00810
   D101       3.10723   0.00004   0.00000   0.00204   0.00205   3.10928
   D102      -3.13184   0.00029   0.00000   0.00469   0.00472  -3.12712
   D103      -0.01291   0.00030   0.00000   0.00314   0.00316  -0.00975
   D104       3.12790   0.00024   0.00000   0.00206   0.00201   3.12991
   D105      -0.02090   0.00002   0.00000  -0.00275  -0.00278  -0.02368
   D106      -0.01171   0.00011   0.00000   0.00165   0.00162  -0.01009
   D107       3.12267  -0.00011   0.00000  -0.00316  -0.00317   3.11950
   D108      -2.99454   0.00000   0.00000  -0.00603  -0.00601  -3.00056
   D109       0.13174   0.00000   0.00000  -0.00229  -0.00228   0.12946
   D110      -3.12595  -0.00004   0.00000  -0.00750  -0.00748  -3.13343
   D111       0.00034  -0.00004   0.00000  -0.00376  -0.00375  -0.00342
   D112       0.12823   0.00028   0.00000   0.00190   0.00192   0.13015
   D113      -3.02867   0.00028   0.00000   0.00564   0.00565  -3.02303
   D114      -0.13745   0.00002   0.00000   0.00116   0.00115  -0.13630
   D115       2.98931   0.00012   0.00000   0.00487   0.00487   2.99418
   D116      -0.00611   0.00010   0.00000   0.00272   0.00272  -0.00339
   D117       3.12065   0.00020   0.00000   0.00644   0.00644   3.12709
   D118       3.02294  -0.00026   0.00000  -0.00678  -0.00678   3.01616
   D119      -0.13348  -0.00016   0.00000  -0.00307  -0.00306  -0.13655
   D120       2.79207  -0.00005   0.00000  -0.00330  -0.00334   2.78873
   D121      -0.22415   0.00002   0.00000  -0.00179  -0.00184  -0.22598
   D122       3.09167  -0.00008   0.00000  -0.00304  -0.00303   3.08865
   D123      -0.05703  -0.00009   0.00000  -0.00436  -0.00435  -0.06138
   D124      -0.03299  -0.00016   0.00000  -0.00745  -0.00744  -0.04043
   D125       3.10149  -0.00017   0.00000  -0.00877  -0.00876   3.09273
   D126      -3.09097   0.00009   0.00000   0.00152   0.00152  -3.08945
   D127       0.04351   0.00008   0.00000   0.00020   0.00020   0.04371
   D128       0.05129   0.00011   0.00000   0.00321   0.00320   0.05449
   D129      -3.09730   0.00006   0.00000   0.00194   0.00193  -3.09537
   D130      -3.10724   0.00020   0.00000   0.00766   0.00765  -3.09959
   D131       0.02735   0.00015   0.00000   0.00639   0.00638   0.03373
   D132      -0.04934  -0.00004   0.00000  -0.00137  -0.00137  -0.05071
   D133       3.08525  -0.00009   0.00000  -0.00264  -0.00264   3.08262
   D134       0.85936  -0.00049   0.00000  -0.00050  -0.00050   0.85886
   D135      -2.30558  -0.00039   0.00000   0.00571   0.00569  -2.29989
   D136      -2.29414  -0.00057   0.00000  -0.00377  -0.00373  -2.29788
   D137       0.82411  -0.00047   0.00000   0.00244   0.00245   0.82656
   D138       3.10790   0.00027   0.00000   0.00802   0.00799   3.11589
   D139       0.00225   0.00011   0.00000   0.00621   0.00619   0.00844
   D140      -0.01062   0.00016   0.00000   0.00190   0.00189  -0.00873
   D141      -3.11627   0.00001   0.00000   0.00009   0.00009  -3.11619
   D142       0.05634  -0.00021   0.00000  -0.00863  -0.00860   0.04774
   D143      -3.06979  -0.00021   0.00000  -0.01241  -0.01237  -3.08216
   D144      -3.10825  -0.00011   0.00000  -0.00251  -0.00251  -3.11075
   D145       0.04881  -0.00011   0.00000  -0.00629  -0.00627   0.04254
   D146      -0.02308  -0.00008   0.00000   0.00284   0.00283  -0.02025
   D147      -3.13827  -0.00011   0.00000   0.00013   0.00013  -3.13813
   D148       3.08282   0.00008   0.00000   0.00464   0.00463   3.08745
   D149      -0.03236   0.00005   0.00000   0.00193   0.00193  -0.03044
   D150       0.01741  -0.00006   0.00000  -0.00303  -0.00302   0.01438
   D151      -3.11246  -0.00002   0.00000  -0.00247  -0.00247  -3.11493
   D152       3.13225  -0.00002   0.00000  -0.00029  -0.00029   3.13196
   D153       0.00238   0.00002   0.00000   0.00027   0.00027   0.00265
   D154      -3.12756   0.00008   0.00000  -0.00277  -0.00277  -3.13033
   D155       0.02113   0.00009   0.00000  -0.00145  -0.00145   0.01968
   D156       0.00253   0.00004   0.00000  -0.00332  -0.00332  -0.00080
   D157      -3.13197   0.00005   0.00000  -0.00200  -0.00200  -3.13397
   D158      -0.03220  -0.00001   0.00000   0.00373   0.00372  -0.02848
   D159       3.09453  -0.00001   0.00000   0.00735   0.00733   3.10187
   D160       3.10252  -0.00002   0.00000   0.00246   0.00245   3.10497
   D161      -0.05393  -0.00002   0.00000   0.00607   0.00606  -0.04787
   D162       0.04369  -0.00009   0.00000  -0.00149  -0.00149   0.04220
   D163      -3.09115  -0.00004   0.00000  -0.00026  -0.00026  -3.09141
   D164      -3.08347  -0.00020   0.00000  -0.00513  -0.00512  -3.08859
   D165       0.06488  -0.00015   0.00000  -0.00390  -0.00389   0.06099
   D166       3.09721   0.00012   0.00000   0.00052   0.00051   3.09772
   D167      -0.07242   0.00042   0.00000   0.00743   0.00741  -0.06501
   D168      -0.05939   0.00022   0.00000   0.00429   0.00428  -0.05511
   D169       3.05417   0.00052   0.00000   0.01119   0.01117   3.06534
   D170       3.12424   0.00002   0.00000   0.00196   0.00197   3.12621
   D171      -0.00682   0.00003   0.00000   0.00207   0.00207  -0.00475
   D172      -0.02433  -0.00003   0.00000   0.00069   0.00070  -0.02363
   D173       3.12779  -0.00002   0.00000   0.00080   0.00080   3.12859
   D174      -0.02224   0.00010   0.00000   0.00209   0.00209  -0.02016
   D175      -3.13429   0.00000   0.00000  -0.00037  -0.00038  -3.13467
   D176       3.10862   0.00009   0.00000   0.00198   0.00198   3.11061
   D177      -0.00342  -0.00001   0.00000  -0.00048  -0.00048  -0.00391
   D178       0.02837  -0.00003   0.00000  -0.00172  -0.00172   0.02665
   D179      -3.07657  -0.00015   0.00000  -0.00428  -0.00427  -3.08084
   D180       3.14079   0.00006   0.00000   0.00072   0.00071   3.14150
   D181       0.03585  -0.00006   0.00000  -0.00184  -0.00184   0.03401
   D182       0.01313  -0.00012   0.00000  -0.00149  -0.00148   0.01165
   D183      -3.10032  -0.00044   0.00000  -0.00844  -0.00842  -3.10874
   D184       3.11778   0.00001   0.00000   0.00109   0.00109   3.11887
   D185       0.00433  -0.00032   0.00000  -0.00586  -0.00585  -0.00152
   D186       2.31887  -0.00014   0.00000  -0.00794  -0.00794   2.31093
   D187      -0.81520   0.00009   0.00000  -0.00293  -0.00295  -0.81815
   D188      -0.85125   0.00019   0.00000  -0.00089  -0.00090  -0.85215
   D189       2.29787   0.00042   0.00000   0.00413   0.00409   2.30196
   D190      -0.07495  -0.00012   0.00000   0.00159   0.00163  -0.07333
   D191       3.07526   0.00001   0.00000   0.00362   0.00362   3.07887
   D192       3.05946  -0.00033   0.00000  -0.00321  -0.00315   3.05631
   D193      -0.07352  -0.00021   0.00000  -0.00118  -0.00116  -0.07468
   D194       0.00290  -0.00018   0.00000   0.00161   0.00165   0.00455
   D195      -3.13624  -0.00012   0.00000   0.00140   0.00143  -3.13480
   D196       3.14060  -0.00002   0.00000   0.00053   0.00052   3.14112
   D197       0.00147   0.00004   0.00000   0.00031   0.00030   0.00177
         Item               Value     Threshold  Converged?
 Maximum Force            0.006493     0.000450     NO 
 RMS     Force            0.000543     0.000300     NO 
 Maximum Displacement     0.204650     0.001800     NO 
 RMS     Displacement     0.035748     0.001200     NO 
 Predicted change in Energy=-1.212554D-03
 GradGradGradGradGradGradGradGradGradGradGradGradGradGradGradGradGradGrad

 Stoichiometry    C34H21BrMnN3O3
 Framework group  C1[X(C34H21BrMnN3O3)]
 Deg. of freedom   183
 Full point group                 C1      NOp   1
 Largest Abelian subgroup         C1      NOp   1
 Largest concise Abelian subgroup C1      NOp   1
                         Standard orientation:                         
 ---------------------------------------------------------------------
 Center     Atomic      Atomic             Coordinates (Angstroms)
 Number     Number       Type             X           Y           Z
 ---------------------------------------------------------------------
      1         25           0       -1.965682   -1.133157   -0.438625
      2          6           0       -3.121268   -1.089497   -1.881120
      3          8           0       -3.732922   -1.112844   -2.841286
      4          6           0       -3.109501   -2.180114    0.566350
      5          8           0       -3.732844   -2.897552    1.193554
      6          6           0       -1.211592   -2.610494   -1.119328
      7          7           0       -0.667015   -1.087360    1.280072
      8          6           0       -0.310921   -0.426470    3.555332
      9          6           0        1.051652   -0.676045    3.439356
     10          6           0        0.628993   -1.414371    1.210214
     11          1           0       -0.744024   -0.052455    4.482719
     12          1           0        1.727544   -0.470576    4.271943
     13          7           0       -2.568658    1.164827    0.656195
     14          6           0       -1.931834    2.065114    1.005464
     15          6           0       -1.064881    3.151404    1.368396
     16          6           0        0.315915    2.904969    1.447674
     17          6           0        1.184851    3.939057    1.774399
     18          6           0       -1.567144    4.439241    1.604301
     19          1           0        0.712777    1.913853    1.238846
     20          1           0       -2.633745    4.650752    1.532435
     21          7           0       -0.717927    0.220245   -1.547307
     22          6           0       -0.446814    2.430232   -2.434910
     23          6           0        0.922628    2.230961   -2.572219
     24          1           0       -0.917247    3.376378   -2.704078
     25          6           0       -1.132562   -0.638008    2.458255
     26          1           0       -2.198519   -0.420530    2.517586
     27          6           0       -1.227424    1.408291   -1.917286
     28          1           0       -2.297772    1.552436   -1.772552
     29          1           0        2.256791    3.743541    1.832493
     30          8           0       -0.712440   -3.545463   -1.554157
     31          6           0        3.053616   -0.250355   -0.105503
     32          6           0        5.711192   -0.958372   -0.497378
     33          6           0        1.550845   -1.193887    2.240693
     34          6           0        2.998260   -1.481627    2.056553
     35          6           0        3.692753   -2.203630    2.994566
     36          6           0        5.072458   -2.514785    2.818882
     37          6           0        5.738765   -2.120141    1.693842
     38          6           0        5.066195   -1.369854    0.676293
     39          6           0        3.687660   -1.019771    0.871637
     40          1           0        3.175342   -2.577267    3.881261
     41          1           0        5.586182   -3.094276    3.588123
     42          1           0        6.789666   -2.380351    1.548569
     43          6           0        3.651202    0.064154   -1.326029
     44          6           0        5.032128   -0.278576   -1.517449
     45          6           0        5.672535    0.095270   -2.742372
     46          6           0        4.972118    0.741595   -3.720952
     47          6           0        3.587065    1.034153   -3.552485
     48          6           0        2.922102    0.706685   -2.397105
     49          1           0        6.726541   -0.154531   -2.883159
     50          1           0        5.461858    1.019348   -4.656089
     51          1           0        3.042174    1.500392   -4.376593
     52          6           0        1.466568    0.982492   -2.255788
     53          1           0        1.569019    3.037590   -2.924368
     54          6           0        0.581726    0.003106   -1.784191
     55          1           0        0.953961   -1.000852   -1.582077
     56          1           0        0.966145   -1.877653    0.283852
     57          6           0        0.684653    5.217303    2.023281
     58          6           0       -0.685404    5.464326    1.935320
     59          1           0       -1.074192    6.466216    2.124121
     60          1           0        1.368143    6.028019    2.283149
     61         35           0       -6.219111   -0.577423   -0.279644
     62          1           0        6.772560   -1.183611   -0.627639
     63          1           0        2.049371    0.111054    0.086833
 ---------------------------------------------------------------------
 Rotational constants (GHZ):           0.1013735           0.0495529           0.0476241
 Basis read from rwf:  (5D, 7F)
 There are   802 symmetry adapted cartesian basis functions of A   symmetry.
 There are   751 symmetry adapted basis functions of A   symmetry.
   751 basis functions,  1339 primitive gaussians,   802 cartesian basis functions
   165 alpha electrons      165 beta electrons
       nuclear repulsion energy      5950.4724910067 Hartrees.
 NAtoms=   63 NActive=   63 NUniq=   63 SFac= 1.00D+00 NAtFMM=   60 NAOKFM=T Big=T
 Integral buffers will be    131072 words long.
 Raffenetti 2 integral format.
 Two-electron integral symmetry is turned on.
 Nuclear repulsion after empirical dispersion term =     5950.4039206884 Hartrees.
 ------------------------------------------------------------------------------
 Polarizable Continuum Model (PCM)
 =================================
 Model                : PCM.
 Atomic radii         : UFF (Universal Force Field).
 Polarization charges : Total charges.
 Charge compensation  : None.
 Solution method      : On-the-fly selection.
 Cavity type          : Scaled VdW (van der Waals Surface) (Alpha=1.100).
 Cavity algorithm     : GePol (No added spheres)
                        Default sphere list used, NSphG=   63.
                        Lebedev-Laikov grids with approx.  5.0 points / Ang**2.
                        Smoothing algorithm: York/Karplus (Gamma=1.0000).
                        Polarization charges: spherical gaussians, with
                                              point-specific exponents (IZeta= 3).
                        Self-potential: point-specific (ISelfS= 7).
                        Self-field    : sphere-specific E.n sum rule (ISelfD= 2).
 1st derivatives      : Analytical E(r).r(x)/FMM algorithm (CHGder, D1EAlg=3).
                        Cavity 1st derivative terms included.
 Solvent              : TetraHydroFuran, Eps=   7.425700 Eps(inf)=   1.974025
 ------------------------------------------------------------------------------
 One-electron integrals computed using PRISM.
 PrsmSu:  requested number of processors reduced to:  11 ShMem   1 Linda.
 NBasis=   751 RedAO= T EigKep=  2.21D-04  NBF=   751
 NBsUse=   751 1.00D-06 EigRej= -1.00D+00 NBFU=   751
 Initial guess from the checkpoint file:  "checkpoint.chk"
 B after Tr=     0.000000   -0.000000    0.000000
         Rot=    0.999997    0.000378    0.000977   -0.002104 Ang=   0.27 deg.
 ExpMin= 3.93D-02 ExpMax= 2.77D+05 ExpMxC= 1.70D+04 IAcc=3 IRadAn=         5 AccDes= 0.00D+00
 Harris functional with IExCor= 4639 and IRadAn=       5 diagonalized for initial guess.
 HarFok:  IExCor= 4639 AccDes= 0.00D+00 IRadAn=         5 IDoV= 1 UseB2=F ITyADJ=14
 ICtDFT=  3500011 ScaDFX=  1.000000  1.000000  1.000000  1.000000
 FoFCou: FMM=F IPFlag=           0 FMFlag=      100000 FMFlg1=        2001
         NFxFlg=           0 DoJE=T BraDBF=F KetDBF=T FulRan=T
         wScrn=  0.000000 ICntrl=       500 IOpCl=  0 I1Cent=   200000004 NGrid=           0
         NMat0=    1 NMatS0=      1 NMatT0=    0 NMatD0=    1 NMtDS0=    0 NMtDT0=    0
 Petite list used in FoFCou.
 Requested convergence on RMS density matrix=1.00D-08 within 128 cycles.
 Requested convergence on MAX density matrix=1.00D-06.
 Requested convergence on             energy=1.00D-06.
 No special actions if energy rises.
 CoulSu:  requested number of processors reduced to:   9 ShMem   1 Linda.
 Inv3:  Mode=1 IEnd=    68659968.
 Iteration    1 A*A^-1 deviation from unit magnitude is 4.22D-15 for   2161.
 Iteration    1 A*A^-1 deviation from orthogonality  is 2.33D-15 for   2394   1988.
 Iteration    1 A^-1*A deviation from unit magnitude is 4.00D-15 for   2161.
 Iteration    1 A^-1*A deviation from orthogonality  is 1.53D-14 for   3659   3638.
 CoulSu:  requested number of processors reduced to:   9 ShMem   1 Linda.
 CoulSu:  requested number of processors reduced to:   9 ShMem   1 Linda.
