 Entering Gaussian System, Link 0=g16
 Initial command:
 /home1/apps/gaussian/16rA.03/g16/l1.exe "/tmp/Gau-195800.inp" -scrdir="/tmp/"
 Entering Link 1 = /home1/apps/gaussian/16rA.03/g16/l1.exe PID=    195802.
  
 Copyright (c) 1988,1990,1992,1993,1995,1998,2003,2009,2016,
            Gaussian, Inc.  All Rights Reserved.
  
 This is part of the Gaussian(R) 16 program.  It is based on
 the Gaussian(R) 09 system (copyright 2009, Gaussian, Inc.),
 the Gaussian(R) 03 system (copyright 2003, Gaussian, Inc.),
 the Gaussian(R) 98 system (copyright 1998, Gaussian, Inc.),
 the Gaussian(R) 94 system (copyright 1995, Gaussian, Inc.),
 the Gaussian 92(TM) system (copyright 1992, Gaussian, Inc.),
 the Gaussian 90(TM) system (copyright 1990, Gaussian, Inc.),
 the Gaussian 88(TM) system (copyright 1988, Gaussian, Inc.),
 the Gaussian 86(TM) system (copyright 1986, Carnegie Mellon
 University), and the Gaussian 82(TM) system (copyright 1983,
 Carnegie Mellon University). Gaussian is a federally registered
 trademark of Gaussian, Inc.
  
 This software contains proprietary and confidential information,
 including trade secrets, belonging to Gaussian, Inc.
  
 This software is provided under written license and may be
 used, copied, transmitted, or stored only in accord with that
 written license.
  
 The following legend is applicable only to US Government
 contracts under FAR:
  
                    RESTRICTED RIGHTS LEGEND
  
 Use, reproduction and disclosure by the US Government is
 subject to restrictions as set forth in subparagraphs (a)
 and (c) of the Commercial Computer Software - Restricted
 Rights clause in FAR 52.227-19.
  
 Gaussian, Inc.
 340 Quinnipiac St., Bldg. 40, Wallingford CT 06492
  
  
 ---------------------------------------------------------------
 Warning -- This program may not be used in any manner that
 competes with the business of Gaussian, Inc. or will provide
 assistance to any competitor of Gaussian, Inc.  The licensee
 of this program is prohibited from giving any competitor of
 Gaussian, Inc. access to this program.  By using this program,
 the user acknowledges that Gaussian, Inc. is engaged in the
 business of creating and licensing software in the field of
 computational chemistry and represents and warrants to the
 licensee that it is not a competitor of Gaussian, Inc. and that
 it will not use this program in any manner prohibited above.
 ---------------------------------------------------------------
  

 Cite this work as:
 Gaussian 16, Revision A.03,
 M. J. Frisch, G. W. Trucks, H. B. Schlegel, G. E. Scuseria, 
 M. A. Robb, J. R. Cheeseman, G. Scalmani, V. Barone, 
 G. A. Petersson, H. Nakatsuji, X. Li, M. Caricato, A. V. Marenich, 
 J. Bloino, B. G. Janesko, R. Gomperts, B. Mennucci, H. P. Hratchian, 
 J. V. Ortiz, A. F. Izmaylov, J. L. Sonnenberg, D. Williams-Young, 
 F. Ding, F. Lipparini, F. Egidi, J. Goings, B. Peng, A. Petrone, 
 T. Henderson, D. Ranasinghe, V. G. Zakrzewski, J. Gao, N. Rega, 
 G. Zheng, W. Liang, M. Hada, M. Ehara, K. Toyota, R. Fukuda, 
 J. Hasegawa, M. Ishida, T. Nakajima, Y. Honda, O. Kitao, H. Nakai, 
 T. Vreven, K. Throssell, J. A. Montgomery, Jr., J. E. Peralta, 
 F. Ogliaro, M. J. Bearpark, J. J. Heyd, E. N. Brothers, K. N. Kudin, 
 V. N. Staroverov, T. A. Keith, R. Kobayashi, J. Normand, 
 K. Raghavachari, A. P. Rendell, J. C. Burant, S. S. Iyengar, 
 J. Tomasi, M. Cossi, J. M. Millam, M. Klene, C. Adamo, R. Cammi, 
 J. W. Ochterski, R. L. Martin, K. Morokuma, O. Farkas, 
 J. B. Foresman, and D. J. Fox, Gaussian, Inc., Wallingford CT, 2016.
 
 ******************************************
 Gaussian 16:  ES64L-G16RevA.03 25-Dec-2016
                22-Oct-2022 
 ******************************************
 %Chk=checkpoint.chk
 %NProcShared=12
 Will use up to   12 processors via shared memory.
 ------------------------------------------------------
 # wB97XD Gen Opt=(QST2) SCRF=(Solvent=TetraHydroFuran)
 ------------------------------------------------------
 1/5=1,18=20,26=3,27=202,38=1/1,3;
 2/9=110,12=2,17=6,18=5,40=1/2;
 3/5=7,11=2,25=1,30=1,70=2201,71=1,72=20,74=-58/1,2,3;
 4//1;
 5/5=2,38=5,53=20/2;
 6/7=2,8=2,9=2,10=2,28=1/1;
 7//1,2,3,16;
 1/5=1,18=20,26=3,27=202/3(2);
 2/9=110/2;
 99//99;
 2/9=110/2;
 3/5=7,6=1,11=2,25=1,30=1,70=2205,71=1,72=20,74=-58,82=7/1,2,3;
 4/5=5,16=3,69=1/1;
 5/5=2,38=5,53=20/2;
 7//1,2,3,16;
 1/5=1,18=20,26=3,27=202/3(-5);
 2/9=110/2;
 6/7=2,8=2,9=2,10=2,19=2,28=1/1;
 99/9=1/99;
 ----------------------------
 Mn Transition State Reactant
 ----------------------------
 Symbolic Z-matrix:
 Charge =  0 Multiplicity = 1
 Mn                    0.        0.        0. 
 C                    -0.09679   1.8323    0.02295 
 C                     0.        0.       -1.82342 
 C                     1.83282   0.       -0.02938 
 Br                    1.73205   1.73205   1.73205 
 N                    -0.04922  -2.15482   0.09332 
 N                    -2.15153  -0.14036   0.09515 
 C                     0.52385  -2.93988  -0.8355 
 C                     0.57609  -4.32182  -0.71618 
 C                     0.03787  -4.93262   0.41495 
 C                    -0.56724  -4.13205   1.38331 
 C                    -0.59422  -2.75751   1.15179 
 C                    -2.76019  -0.33999   1.26803 
 C                    -4.08404  -0.75052   1.40528 
 C                    -2.90821  -0.24504  -1.01025 
 C                    -4.25761  -0.57119  -0.97276 
 C                    -4.8572   -0.85573   0.2508 
 C                    -4.54612  -1.14763   2.76568 
 C                    -1.06072  -4.64508   2.69242 
 C                    -2.36035  -4.39435   3.17469 
 C                    -4.2951   -2.45577   3.22064 
 C                    -2.7088   -4.77698   4.4776 
 C                    -4.6235   -2.81682   4.53378 
 C                    -5.16246  -0.23395   3.6234 
 C                    -0.16193  -5.33835   3.51187 
 C                    -0.5204   -5.73496   4.79711 
 C                    -5.49479  -0.60032   4.92642 
 C                    -5.20842  -1.88092   5.39075 
 C                    -1.78362  -5.43139   5.29359 
 S                    -3.59561  -3.66717   2.11779 
 S                    -4.34059  -4.47249   5.11215 
 H                     1.05087  -4.91025  -1.50139 
 H                     0.08951  -6.01597   0.54182 
 H                    -1.07315  -2.12266   1.89001 
 H                    -2.16282  -0.19695   2.1652 
 H                    -2.4226   -0.06909  -1.96947 
 H                    -4.81913  -0.6322   -1.90505 
 H                    -5.90099  -1.1706    0.30616 
 H                    -5.36522   0.7782    3.26819 
 H                     0.84657  -5.53732   3.14359 
 H                     0.19986  -6.26023   5.42631 
 H                    -5.96589   0.12432   5.59251 
 H                    -5.4428   -2.16193   6.41931 
 H                    -2.05931  -5.70427   6.31399 
 O                     0.06255   0.01915  -2.96537 
 O                     2.97377  -0.00521  -0.04518 
 O                    -0.17883   2.9698    0.0391 
 H                     0.9665   -2.44597  -1.70172 
 N                     0.1205   -0.06435   2.03055 
 C                     0.1757   -0.32041   3.1556 
 C                     0.0988   -0.78664   4.50696 
 C                     1.18058  -0.65782   5.389 
 C                    -1.08395  -1.43608   4.90265 
 C                     1.07101  -1.1882    6.67028 
 H                     2.09302  -0.15307   5.06933 
 C                    -1.1749   -1.96428   6.18414 
 H                    -1.92637  -1.52866   4.21411 
 C                    -0.09853  -1.84109   7.06447 
 H                     1.90634  -1.09472   7.36578 
 H                    -2.08869  -2.47607   6.49182 
 H                    -0.17211  -2.25847   8.07044 
 
 Add virtual bond connecting atoms C2         and Br5        Dist= 4.73D+00.
 Add virtual bond connecting atoms C4         and Br5        Dist= 4.67D+00.
 Add virtual bond connecting atoms N49        and Br5        Dist= 4.60D+00.
 ---------------------------
 Mn Transition State Product
 ---------------------------
 Symbolic Z-matrix:
 Charge =  0 Multiplicity = 1
 Mn                    0.        0.        0. 
 C                    -0.08831   1.81915   0.02694 
 C                     0.        0.       -1.79318 
 C                     1.82129   0.        0.02701 
 Br                    0.21406   0.22525   2.60296 
 N                    -0.00198  -2.15626   0.10267 
 N                    -2.15359  -0.10666   0.10261 
 C                     0.38734  -2.90055  -0.94769 
 C                     0.33894  -4.28645  -0.94857 
 C                    -0.15783  -4.94905   0.17197 
 C                    -0.57167  -4.19114   1.26468 
 C                    -0.44573  -2.80197   1.18369 
 C                    -2.77703  -0.58203   1.18326 
 C                    -4.15855  -0.77451   1.26439 
 C                    -2.91591   0.24739  -0.9473 
 C                    -4.29788   0.13244  -0.94805 
 C                    -4.93564  -0.39652   0.17216 
 C                    -4.73565  -1.36773   2.50277 
 C                    -1.13591  -4.79615   2.50328 
 C                    -2.48294  -4.59586   2.85783 
 C                    -4.47     -2.70335   2.85753 
 C                    -2.9782   -5.11928   4.05963 
 C                    -4.96894  -3.2234    4.05928 
 C                    -5.54655  -0.59398   3.33896 
 C                    -0.32361  -5.56806   3.33979 
 C                    -0.82204  -6.0942    4.52932 
 C                    -6.04809  -1.11734   4.52841 
 C                    -5.74193  -2.42245   4.90321 
 C                    -2.14059  -5.85203   4.90386 
 S                    -3.58496  -3.76369   1.73597 
 S                    -4.6875   -4.9209    4.50034 
 H                     0.67663  -4.83606  -1.82736 
 H                    -0.23113  -6.03846   0.19274 
 H                    -0.69729  -2.18819   2.04804 
 H                    -2.15175  -0.80469   2.04727 
 H                    -2.4021    0.64317  -1.82367 
 H                    -4.86325   0.44411  -1.82647 
 H                    -6.02029  -0.52198   0.19305 
 H                    -5.76345   0.43908   3.05961 
 H                     0.71885  -5.73439   3.0606 
 H                    -0.17222  -6.6814    5.18043 
 H                    -6.66649  -0.49688   5.17925 
 H                    -6.10842  -2.82852   5.84804 
 H                    -2.52842  -6.23768   5.84873 
 O                     0.04791   0.05036  -2.9414 
 O                     2.96474  -0.00968   0.05082 
 O                    -0.15349   2.9608    0.05043 
 H                     0.75715  -2.36822  -1.82434 
 N                    -1.20605  -1.20605   3.61814 
 C                    -0.49702  -0.49702   4.19706 
 C                     0.38475   0.38396   4.91663 
 C                     1.67203  -0.05059   5.26513 
 C                    -0.04977   1.67159   5.26498 
 C                     2.51916   0.80663   5.96106 
 H                     2.00123  -1.05385   4.99002 
 C                     0.8073    2.51859   5.96087 
 H                    -1.05301   2.00049   4.98947 
 C                     2.0886    2.08787   6.30824 
 H                     3.52153   0.47194   6.23384 
 H                     0.47284   3.52104   6.23363 
 H                     2.75719   2.75643   6.85437 
 
 Iteration  1 RMS(Cart)=  0.22192099 RMS(Int)=  0.67499530
 Iteration  2 RMS(Cart)=  0.12946332 RMS(Int)=  0.66615474
 Iteration  3 RMS(Cart)=  0.21510652 RMS(Int)=  0.66312651
 Iteration  4 RMS(Cart)=  0.18281031 RMS(Int)=  0.65972244
 Iteration  5 RMS(Cart)=  0.10049667 RMS(Int)=  0.65781198
 Iteration  6 RMS(Cart)=  0.04322572 RMS(Int)=  0.65636044
 Iteration  7 RMS(Cart)=  0.00505446 RMS(Int)=  0.65520717
 Iteration  8 RMS(Cart)=  0.00295133 RMS(Int)=  0.65426166
 Iteration  9 RMS(Cart)=  0.00247511 RMS(Int)=  0.65340318
 Iteration 10 RMS(Cart)=  0.01992041 RMS(Int)=  0.65016403
 Iteration 11 RMS(Cart)=  0.01278569 RMS(Int)=  0.64736922
 Iteration 12 RMS(Cart)=  0.00869360 RMS(Int)=  0.64458896
 Iteration 13 RMS(Cart)=  0.00782296 RMS(Int)=  0.64190356
 Iteration 14 RMS(Cart)=  0.00762403 RMS(Int)=  0.63936744
 Iteration 15 RMS(Cart)=  0.00748619 RMS(Int)=  0.63701193
 Iteration 16 RMS(Cart)=  0.00728592 RMS(Int)=  0.63485399
 Iteration 17 RMS(Cart)=  0.00700631 RMS(Int)=  0.63290116
 Iteration 18 RMS(Cart)=  0.00665431 RMS(Int)=  0.63115394
 Iteration 19 RMS(Cart)=  0.00624335 RMS(Int)=  0.62960704
 Iteration 20 RMS(Cart)=  0.00578933 RMS(Int)=  0.62825057
 Iteration 21 RMS(Cart)=  0.00530892 RMS(Int)=  0.62707118
 Iteration 22 RMS(Cart)=  0.00482885 RMS(Int)=  0.62605043
 Iteration 23 RMS(Cart)=  0.00442729 RMS(Int)=  0.62515176
 Iteration 24 RMS(Cart)=  0.00417573 RMS(Int)=  0.62433589
 Iteration 25 RMS(Cart)=  0.00401421 RMS(Int)=  0.62358062
 Iteration 26 RMS(Cart)=  0.00385312 RMS(Int)=  0.62287958
 Iteration 27 RMS(Cart)=  0.00371593 RMS(Int)=  0.62222621
 Iteration 28 RMS(Cart)=  0.00360439 RMS(Int)=  0.62161466
 Iteration 29 RMS(Cart)=  0.00351113 RMS(Int)=  0.62103789
 Iteration 30 RMS(Cart)=  0.00343471 RMS(Int)=  0.62049138
 Iteration 31 RMS(Cart)=  0.00336762 RMS(Int)=  0.61997177
 Iteration 32 RMS(Cart)=  0.00330672 RMS(Int)=  0.61947654
 Iteration 33 RMS(Cart)=  0.00325021 RMS(Int)=  0.61900371
 Iteration 34 RMS(Cart)=  0.00319698 RMS(Int)=  0.61855169
 Iteration 35 RMS(Cart)=  0.00314635 RMS(Int)=  0.61811912
 Iteration 36 RMS(Cart)=  0.00309778 RMS(Int)=  0.61770489
 Iteration 37 RMS(Cart)=  0.00305121 RMS(Int)=  0.61730797
 Iteration 38 RMS(Cart)=  0.00300644 RMS(Int)=  0.61692748
 Iteration 39 RMS(Cart)=  0.00296334 RMS(Int)=  0.61656261
 Iteration 40 RMS(Cart)=  0.00292179 RMS(Int)=  0.61621262
 Iteration 41 RMS(Cart)=  0.00288172 RMS(Int)=  0.61587685
 Iteration 42 RMS(Cart)=  0.00284304 RMS(Int)=  0.61555468
 Iteration 43 RMS(Cart)=  0.00280569 RMS(Int)=  0.61524554
 Iteration 44 RMS(Cart)=  0.00276961 RMS(Int)=  0.61494889
 Iteration 45 RMS(Cart)=  0.00273474 RMS(Int)=  0.61466424
 Iteration 46 RMS(Cart)=  0.00270103 RMS(Int)=  0.61439113
 Iteration 47 RMS(Cart)=  0.00266844 RMS(Int)=  0.61412911
 Iteration 48 RMS(Cart)=  0.00263692 RMS(Int)=  0.61387777
 Iteration 49 RMS(Cart)=  0.00260642 RMS(Int)=  0.61363674
 Iteration 50 RMS(Cart)=  0.00257691 RMS(Int)=  0.61340564
 Iteration 51 RMS(Cart)=  0.00254834 RMS(Int)=  0.61318413
 Iteration 52 RMS(Cart)=  0.00252067 RMS(Int)=  0.61297189
 Iteration 53 RMS(Cart)=  0.00249387 RMS(Int)=  0.61276861
 Iteration 54 RMS(Cart)=  0.00246790 RMS(Int)=  0.61257399
 Iteration 55 RMS(Cart)=  0.00244274 RMS(Int)=  0.61238777
 Iteration 56 RMS(Cart)=  0.00241834 RMS(Int)=  0.61220968
 Iteration 57 RMS(Cart)=  0.00239469 RMS(Int)=  0.61203947
 Iteration 58 RMS(Cart)=  0.00237174 RMS(Int)=  0.61187692
 Iteration 59 RMS(Cart)=  0.00234948 RMS(Int)=  0.61172178
 Iteration 60 RMS(Cart)=  0.00232788 RMS(Int)=  0.61157387
 Iteration 61 RMS(Cart)=  0.00230691 RMS(Int)=  0.61143296
 Iteration 62 RMS(Cart)=  0.00228655 RMS(Int)=  0.61129887
 Iteration 63 RMS(Cart)=  0.00226677 RMS(Int)=  0.61117142
 Iteration 64 RMS(Cart)=  0.00224756 RMS(Int)=  0.61105042
 Iteration 65 RMS(Cart)=  0.00222890 RMS(Int)=  0.61093573
 Iteration 66 RMS(Cart)=  0.00221076 RMS(Int)=  0.61082717
 Iteration 67 RMS(Cart)=  0.00219313 RMS(Int)=  0.61072459
 Iteration 68 RMS(Cart)=  0.00217599 RMS(Int)=  0.61062786
 Iteration 69 RMS(Cart)=  0.00215932 RMS(Int)=  0.61053682
 Iteration 70 RMS(Cart)=  0.00214310 RMS(Int)=  0.61045136
 Iteration 71 RMS(Cart)=  0.00212733 RMS(Int)=  0.61037134
 Iteration 72 RMS(Cart)=  0.00211197 RMS(Int)=  0.61029665
 Iteration 73 RMS(Cart)=  0.00209704 RMS(Int)=  0.61022717
 Iteration 74 RMS(Cart)=  0.00208249 RMS(Int)=  0.61016278
 Iteration 75 RMS(Cart)=  0.00206833 RMS(Int)=  0.61010338
 Iteration 76 RMS(Cart)=  0.00205455 RMS(Int)=  0.61004888
 Iteration 77 RMS(Cart)=  0.00204112 RMS(Int)=  0.60999916
 Iteration 78 RMS(Cart)=  0.00202804 RMS(Int)=  0.60995415
 Iteration 79 RMS(Cart)=  0.00201530 RMS(Int)=  0.60991376
 Iteration 80 RMS(Cart)=  0.00200289 RMS(Int)=  0.60987788
 Iteration 81 RMS(Cart)=  0.00199079 RMS(Int)=  0.60984645
 Iteration 82 RMS(Cart)=  0.00197900 RMS(Int)=  0.60981939
 Iteration 83 RMS(Cart)=  0.00196750 RMS(Int)=  0.60979662
 Iteration 84 RMS(Cart)=  0.00195630 RMS(Int)=  0.60977807
 Iteration 85 RMS(Cart)=  0.00194537 RMS(Int)=  0.60976366
 Iteration 86 RMS(Cart)=  0.00193471 RMS(Int)=  0.60975334
 Iteration 87 RMS(Cart)=  0.00192432 RMS(Int)=  0.60974704
 Iteration 88 RMS(Cart)=  0.00191418 RMS(Int)=  0.60974469
 Iteration 89 RMS(Cart)=  0.00190429 RMS(Int)=  0.60974624
 Iteration 90 RMS(Cart)=  0.00189464 RMS(Int)=  0.60975164
 Iteration 91 RMS(Cart)=  0.00188522 RMS(Int)=  0.60976082
 Iteration 92 RMS(Cart)=  0.00187603 RMS(Int)=  0.60977374
 Iteration 93 RMS(Cart)=  0.00186705 RMS(Int)=  0.60979034
 Iteration 94 RMS(Cart)=  0.00185829 RMS(Int)=  0.60981058
 Iteration 95 RMS(Cart)=  0.00184974 RMS(Int)=  0.60983441
 Iteration 96 RMS(Cart)=  0.00184138 RMS(Int)=  0.60986179
 Iteration 97 RMS(Cart)=  0.00183322 RMS(Int)=  0.60989267
 Iteration 98 RMS(Cart)=  0.00182525 RMS(Int)=  0.60992701
 Iteration 99 RMS(Cart)=  0.00181746 RMS(Int)=  0.60996478
 Iteration100 RMS(Cart)=  0.00180984 RMS(Int)=  0.61000593
 New curvilinear step not converged.
 FormGI is forming the generalized inverse of G from B-inverse, IUseBI=4.
 RedQX1 iteration     1 Try  1 RMS(Cart)=  0.31374841 RMS(Int)=  0.65060131 XScale=  8.35828716
 RedQX1 iteration     1 Try  2 RMS(Cart)=  0.31867734 RMS(Int)=  0.61680412 XScale=  4.19346635
 RedQX1 iteration     1 Try  3 RMS(Cart)=  0.34731521 RMS(Int)=  0.59696316 XScale=  2.77371352
 RedQX1 iteration     1 Try  4 RMS(Cart)=  0.43448712 RMS(Int)=  0.59120248 XScale=  2.01599576
 RedQX1 iteration     1 Try  5 RMS(Cart)=  0.72824729 RMS(Int)=  0.60469945 XScale=  1.46573366
 RedQX1 iteration     1 Try  6 RMS(Cart)=  0.58475199 RMS(Int)=  0.60756331 XScale=  1.26838499
 RedQX1 iteration     2 Try  1 RMS(Cart)=  0.10104090 RMS(Int)=  0.60594294 XScale=  1.25015041
 RedQX1 iteration     2 Try  2 RMS(Cart)=  0.12322303 RMS(Int)=  0.60226569 XScale=  1.22988569
 RedQX1 iteration     2 Try  3 RMS(Cart)=  0.20633897 RMS(Int)=  0.60925573 XScale=  1.20016193
 RedQX1 iteration     2 Try  4 RMS(Cart)=  0.31972361 RMS(Int)=  0.70056182 XScale=  1.13890057
 RedQX1 iteration     2 Try  5 RMS(Cart)=  1.34489576 RMS(Int)=  0.92124975 XScale=  0.87277494
 RedQX1 iteration     3 Try  1 RMS(Cart)=  0.26897915 RMS(Int)=  0.72360280 XScale=  1.08655970
 RedQX1 iteration     3 Try  2 RMS(Cart)=  0.35606435 RMS(Int)=  0.80648067 XScale=  1.04113434
 RedQX1 iteration     3 Try  3 RMS(Cart)=  0.54869455 RMS(Int)=  0.84377753 XScale=  0.90228808
 RedQX1 iteration     4 Try  1 RMS(Cart)=  0.32921673 RMS(Int)=  0.80901405 XScale=  0.94732700
 RedQX1 iteration     5 Try  1 RMS(Cart)=  0.06584335 RMS(Int)=  0.81685496 XScale=  1.02097914
 RedQX1 iteration     5 Try  2 RMS(Cart)=  0.07001143 RMS(Int)=  0.82984420 XScale=  0.99802269
 RedQX1 iteration     6 Try  1 RMS(Cart)=  0.06721097 RMS(Int)=  0.82926816 XScale=  0.99898903
 RedQX1 iteration     7 Try  1 RMS(Cart)=  0.01344219 RMS(Int)=  0.81914463 XScale=  1.01674680
 RedQX1 iteration     7 Try  2 RMS(Cart)=  0.01360848 RMS(Int)=  0.82154326 XScale=  1.01239921
 RedQX1 iteration     7 Try  3 RMS(Cart)=  0.01377907 RMS(Int)=  0.82406290 XScale=  1.00792595
 RedQX1 iteration     7 Try  4 RMS(Cart)=  0.01395416 RMS(Int)=  0.82671748 XScale=  1.00331492
 RedQX1 iteration     7 Try  5 RMS(Cart)=  0.01413395 RMS(Int)=  0.82952292 XScale=  0.99855221
 RedQX1 iteration     8 Try  1 RMS(Cart)=  0.01368166 RMS(Int)=  0.82943110 XScale=  0.99870632
 RedQX1 iteration     9 Try  1 RMS(Cart)=  0.00273633 RMS(Int)=  0.82725051 XScale=  1.00240127
 RedQX1 iteration     9 Try  2 RMS(Cart)=  0.00274319 RMS(Int)=  0.82778940 XScale=  1.00148175
 RedQX1 iteration     9 Try  3 RMS(Cart)=  0.00275007 RMS(Int)=  0.82833427 XScale=  1.00055623
 RedQX1 iteration     9 Try  4 RMS(Cart)=  0.00275700 RMS(Int)=  0.82888526 XScale=  0.99962460
 RedQX1 iteration     9 Try  5 RMS(Cart)=  0.00276396 RMS(Int)=  0.82944251 XScale=  0.99868675
 RedQX1 iteration    10 Try  1 RMS(Cart)=  0.00274627 RMS(Int)=  0.82943892 XScale=  0.99869276
 RedQX1 iteration    11 Try  1 RMS(Cart)=  0.00054925 RMS(Int)=  0.82899559 XScale=  0.99943857
 RedQX1 iteration    11 Try  2 RMS(Cart)=  0.00054953 RMS(Int)=  0.82910616 XScale=  0.99925229
 RedQX1 iteration    11 Try  3 RMS(Cart)=  0.00054981 RMS(Int)=  0.82921699 XScale=  0.99906576
 RedQX1 iteration    11 Try  4 RMS(Cart)=  0.00055008 RMS(Int)=  0.82932806 XScale=  0.99887898
 RedQX1 iteration    12 Try  1 RMS(Cart)=  0.00054955 RMS(Int)=  0.82932796 XScale=  0.99887916
 RedQX1 iteration    13 Try  1 RMS(Cart)=  0.00010991 RMS(Int)=  0.82923916 XScale=  0.99902846
 RedQX1 iteration    13 Try  2 RMS(Cart)=  0.00010992 RMS(Int)=  0.82926135 XScale=  0.99899114
 RedQX1 iteration    14 Try  1 RMS(Cart)=  0.00010991 RMS(Int)=  0.82926135 XScale=  0.99899114
 RedQX1 iteration    15 Try  1 RMS(Cart)=  0.00002198 RMS(Int)=  0.82924360 XScale=  0.99902099
 RedQX1 iteration    15 Try  2 RMS(Cart)=  0.00002198 RMS(Int)=  0.82924804 XScale=  0.99901353
 RedQX1 iteration    15 Try  3 RMS(Cart)=  0.00002198 RMS(Int)=  0.82925248 XScale=  0.99900607
 RedQX1 iteration    15 Try  4 RMS(Cart)=  0.00002198 RMS(Int)=  0.82925691 XScale=  0.99899861
 RedQX1 iteration    16 Try  1 RMS(Cart)=  0.00002198 RMS(Int)=  0.82925691 XScale=  0.99899861
 RedQX1 iteration    17 Try  1 RMS(Cart)=  0.00000440 RMS(Int)=  0.82925336 XScale=  0.99900458
 RedQX1 iteration    17 Try  2 RMS(Cart)=  0.00000440 RMS(Int)=  0.82925425 XScale=  0.99900308
 RedQX1 iteration    17 Try  3 RMS(Cart)=  0.00000440 RMS(Int)=  0.82925514 XScale=  0.99900159
 RedQX1 iteration    17 Try  4 RMS(Cart)=  0.00000440 RMS(Int)=  0.82925603 XScale=  0.99900010
 RedQX1 iteration    17 Try  5 RMS(Cart)=  0.00000440 RMS(Int)=  0.82925691 XScale=  0.99899861
 RedQX1 iteration    18 Try  1 RMS(Cart)=  0.00000440 RMS(Int)=  0.82925691 XScale=  0.99899861
 RedQX1 iteration    19 Try  1 RMS(Cart)=  0.00000088 RMS(Int)=  0.82925620 XScale=  0.99899980
 RedQX1 iteration    20 Try  1 RMS(Cart)=  0.00000018 RMS(Int)=  0.82925606 XScale=  0.99900004
 RedQX1 iteration    20 Try  2 RMS(Cart)=  0.00000018 RMS(Int)=  0.82925610 XScale=  0.99899998
 Old curvilinear step not converged, using linear step:
 SCX= 6.97D+00 DXMaxT= 4.94-324 SCLim= 0.00D+00 Fact= 0.00D+00
 RedCar/ORedCr failed for GTrans.
 Error termination via Lnk1e in /home1/apps/gaussian/16rA.03/g16/l101.exe at Sat Oct 22 00:25:14 2022.
 Job cpu time:       0 days  0 hours  0 minutes 13.8 seconds.
 Elapsed time:       0 days  0 hours  0 minutes  1.6 seconds.
 File lengths (MBytes):  RWF=      6 Int=      0 D2E=      0 Chk=      1 Scr=      1
