 Entering Gaussian System, Link 0=g16
 Initial command:
 /home1/apps/gaussian/16rA.03/g16/l1.exe "/tmp/Gau-139410.inp" -scrdir="/tmp/"
 Entering Link 1 = /home1/apps/gaussian/16rA.03/g16/l1.exe PID=    139412.
  
 Copyright (c) 1988,1990,1992,1993,1995,1998,2003,2009,2016,
            Gaussian, Inc.  All Rights Reserved.
  
 This is part of the Gaussian(R) 16 program.  It is based on
 the Gaussian(R) 09 system (copyright 2009, Gaussian, Inc.),
 the Gaussian(R) 03 system (copyright 2003, Gaussian, Inc.),
 the Gaussian(R) 98 system (copyright 1998, Gaussian, Inc.),
 the Gaussian(R) 94 system (copyright 1995, Gaussian, Inc.),
 the Gaussian 92(TM) system (copyright 1992, Gaussian, Inc.),
 the Gaussian 90(TM) system (copyright 1990, Gaussian, Inc.),
 the Gaussian 88(TM) system (copyright 1988, Gaussian, Inc.),
 the Gaussian 86(TM) system (copyright 1986, Carnegie Mellon
 University), and the Gaussian 82(TM) system (copyright 1983,
 Carnegie Mellon University). Gaussian is a federally registered
 trademark of Gaussian, Inc.
  
 This software contains proprietary and confidential information,
 including trade secrets, belonging to Gaussian, Inc.
  
 This software is provided under written license and may be
 used, copied, transmitted, or stored only in accord with that
 written license.
  
 The following legend is applicable only to US Government
 contracts under FAR:
  
                    RESTRICTED RIGHTS LEGEND
  
 Use, reproduction and disclosure by the US Government is
 subject to restrictions as set forth in subparagraphs (a)
 and (c) of the Commercial Computer Software - Restricted
 Rights clause in FAR 52.227-19.
  
 Gaussian, Inc.
 340 Quinnipiac St., Bldg. 40, Wallingford CT 06492
  
  
 ---------------------------------------------------------------
 Warning -- This program may not be used in any manner that
 competes with the business of Gaussian, Inc. or will provide
 assistance to any competitor of Gaussian, Inc.  The licensee
 of this program is prohibited from giving any competitor of
 Gaussian, Inc. access to this program.  By using this program,
 the user acknowledges that Gaussian, Inc. is engaged in the
 business of creating and licensing software in the field of
 computational chemistry and represents and warrants to the
 licensee that it is not a competitor of Gaussian, Inc. and that
 it will not use this program in any manner prohibited above.
 ---------------------------------------------------------------
  

 Cite this work as:
 Gaussian 16, Revision A.03,
 M. J. Frisch, G. W. Trucks, H. B. Schlegel, G. E. Scuseria, 
 M. A. Robb, J. R. Cheeseman, G. Scalmani, V. Barone, 
 G. A. Petersson, H. Nakatsuji, X. Li, M. Caricato, A. V. Marenich, 
 J. Bloino, B. G. Janesko, R. Gomperts, B. Mennucci, H. P. Hratchian, 
 J. V. Ortiz, A. F. Izmaylov, J. L. Sonnenberg, D. Williams-Young, 
 F. Ding, F. Lipparini, F. Egidi, J. Goings, B. Peng, A. Petrone, 
 T. Henderson, D. Ranasinghe, V. G. Zakrzewski, J. Gao, N. Rega, 
 G. Zheng, W. Liang, M. Hada, M. Ehara, K. Toyota, R. Fukuda, 
 J. Hasegawa, M. Ishida, T. Nakajima, Y. Honda, O. Kitao, H. Nakai, 
 T. Vreven, K. Throssell, J. A. Montgomery, Jr., J. E. Peralta, 
 F. Ogliaro, M. J. Bearpark, J. J. Heyd, E. N. Brothers, K. N. Kudin, 
 V. N. Staroverov, T. A. Keith, R. Kobayashi, J. Normand, 
 K. Raghavachari, A. P. Rendell, J. C. Burant, S. S. Iyengar, 
 J. Tomasi, M. Cossi, J. M. Millam, M. Klene, C. Adamo, R. Cammi, 
 J. W. Ochterski, R. L. Martin, K. Morokuma, O. Farkas, 
 J. B. Foresman, and D. J. Fox, Gaussian, Inc., Wallingford CT, 2016.
 
 ******************************************
 Gaussian 16:  ES64L-G16RevA.03 25-Dec-2016
                22-Oct-2022 
 ******************************************
 %Chk=checkpoint.chk
 %NProcShared=12
 Will use up to   12 processors via shared memory.
 ------------------------------------------------------
 # wB97XD Gen Opt=(QST2) SCRF=(Solvent=TetraHydroFuran)
 ------------------------------------------------------
 1/5=1,18=20,26=3,27=202,38=1/1,3;
 2/9=110,12=2,17=6,18=5,40=1/2;
 3/5=7,11=2,25=1,30=1,70=2201,71=1,72=20,74=-58/1,2,3;
 4//1;
 5/5=2,38=5,53=20/2;
 6/7=2,8=2,9=2,10=2,28=1/1;
 7//1,2,3,16;
 1/5=1,18=20,26=3,27=202/3(2);
 2/9=110/2;
 99//99;
 2/9=110/2;
 3/5=7,6=1,11=2,25=1,30=1,70=2205,71=1,72=20,74=-58,82=7/1,2,3;
 4/5=5,16=3,69=1/1;
 5/5=2,38=5,53=20/2;
 7//1,2,3,16;
 1/5=1,18=20,26=3,27=202/3(-5);
 2/9=110/2;
 6/7=2,8=2,9=2,10=2,19=2,28=1/1;
 99/9=1/99;
 ----------------------------
 Mn Transition State Reactant
 ----------------------------
 Symbolic Z-matrix:
 Charge =  0 Multiplicity = 1
 Mn                    0.        0.        0. 
 C                    -0.09679   1.8323    0.02295 
 C                     0.        0.       -1.82342 
 C                     1.83282   0.       -0.02938 
 Br                    1.73205   1.73205   1.73205 
 N                    -0.04922  -2.15482   0.09332 
 N                    -2.15153  -0.14036   0.09515 
 C                     0.52385  -2.93988  -0.8355 
 C                     0.57609  -4.32182  -0.71618 
 C                     0.03787  -4.93262   0.41495 
 C                    -0.56724  -4.13205   1.38331 
 C                    -0.59422  -2.75751   1.15179 
 C                    -2.76019  -0.33999   1.26803 
 C                    -4.08404  -0.75052   1.40528 
 C                    -2.90821  -0.24504  -1.01025 
 C                    -4.25761  -0.57119  -0.97276 
 C                    -4.8572   -0.85573   0.2508 
 C                    -4.54612  -1.14763   2.76568 
 C                    -1.06072  -4.64508   2.69242 
 C                    -2.36035  -4.39435   3.17469 
 C                    -4.2951   -2.45577   3.22064 
 C                    -2.7088   -4.77698   4.4776 
 C                    -4.6235   -2.81682   4.53378 
 C                    -5.16246  -0.23395   3.6234 
 C                    -0.16193  -5.33835   3.51187 
 C                    -0.5204   -5.73496   4.79711 
 C                    -5.49479  -0.60032   4.92642 
 C                    -5.20842  -1.88092   5.39075 
 C                    -1.78362  -5.43139   5.29359 
 S                    -3.59561  -3.66717   2.11779 
 S                    -4.34059  -4.47249   5.11215 
 H                     1.05087  -4.91025  -1.50139 
 H                     0.08951  -6.01597   0.54182 
 H                    -1.07315  -2.12266   1.89001 
 H                    -2.16282  -0.19695   2.1652 
 H                    -2.4226   -0.06909  -1.96947 
 H                    -4.81913  -0.6322   -1.90505 
 H                    -5.90099  -1.1706    0.30616 
 H                    -5.36522   0.7782    3.26819 
 H                     0.84657  -5.53732   3.14359 
 H                     0.19986  -6.26023   5.42631 
 H                    -5.96589   0.12432   5.59251 
 H                    -5.4428   -2.16193   6.41931 
 H                    -2.05931  -5.70427   6.31399 
 O                     0.06255   0.01915  -2.96537 
 O                     2.97377  -0.00521  -0.04518 
 O                    -0.17883   2.9698    0.0391 
 H                     0.9665   -2.44597  -1.70172 
 N                     0.1205   -0.06435   2.03055 
 C                     0.1757   -0.32041   3.1556 
 C                     0.0988   -0.78664   4.50696 
 C                     1.18058  -0.65782   5.389 
 C                    -1.08395  -1.43608   4.90265 
 C                     1.07101  -1.1882    6.67028 
 H                     2.09302  -0.15307   5.06933 
 C                    -1.1749   -1.96428   6.18414 
 H                    -1.92637  -1.52866   4.21411 
 C                    -0.09853  -1.84109   7.06447 
 H                     1.90634  -1.09472   7.36578 
 H                    -2.08869  -2.47607   6.49182 
 H                    -0.17211  -2.25847   8.07044 
 
 Add virtual bond connecting atoms C2         and Br5        Dist= 4.73D+00.
 Add virtual bond connecting atoms C4         and Br5        Dist= 4.67D+00.
 Add virtual bond connecting atoms N49        and Br5        Dist= 4.60D+00.
 ---------------------------
 Mn Transition State Product
 ---------------------------
 Symbolic Z-matrix:
 Charge =  0 Multiplicity = 1
 Mn                    0.        0.        0. 
 C                    -0.08831   1.81915   0.02694 
 C                     0.        0.       -1.79318 
 C                     1.82129   0.        0.02701 
 Br                    0.21406   0.22525   2.60296 
 N                    -0.00198  -2.15626   0.10267 
 N                    -2.15359  -0.10666   0.10261 
 C                     0.38734  -2.90055  -0.94769 
 C                     0.33894  -4.28645  -0.94857 
 C                    -0.15783  -4.94905   0.17197 
 C                    -0.57167  -4.19114   1.26468 
 C                    -0.44573  -2.80197   1.18369 
 C                    -2.77703  -0.58203   1.18326 
 C                    -4.15855  -0.77451   1.26439 
 C                    -2.91591   0.24739  -0.9473 
 C                    -4.29788   0.13244  -0.94805 
 C                    -4.93564  -0.39652   0.17216 
 C                    -4.73565  -1.36773   2.50277 
 C                    -1.13591  -4.79615   2.50328 
 C                    -2.48294  -4.59586   2.85783 
 C                    -4.47     -2.70335   2.85753 
 C                    -2.9782   -5.11928   4.05963 
 C                    -4.96894  -3.2234    4.05928 
 C                    -5.54655  -0.59398   3.33896 
 C                    -0.32361  -5.56806   3.33979 
 C                    -0.82204  -6.0942    4.52932 
 C                    -6.04809  -1.11734   4.52841 
 C                    -5.74193  -2.42245   4.90321 
 C                    -2.14059  -5.85203   4.90386 
 S                    -3.58496  -3.76369   1.73597 
 S                    -4.6875   -4.9209    4.50034 
 H                     0.67663  -4.83606  -1.82736 
 H                    -0.23113  -6.03846   0.19274 
 H                    -0.69729  -2.18819   2.04804 
 H                    -2.15175  -0.80469   2.04727 
 H                    -2.4021    0.64317  -1.82367 
 H                    -4.86325   0.44411  -1.82647 
 H                    -6.02029  -0.52198   0.19305 
 H                    -5.76345   0.43908   3.05961 
 H                     0.71885  -5.73439   3.0606 
 H                    -0.17222  -6.6814    5.18043 
 H                    -6.66649  -0.49688   5.17925 
 H                    -6.10842  -2.82852   5.84804 
 H                    -2.52842  -6.23768   5.84873 
 O                     0.04791   0.05036  -2.9414 
 O                     2.96474  -0.00968   0.05082 
 O                    -0.15349   2.9608    0.05043 
 H                     0.75715  -2.36822  -1.82434 
 N                    -1.20605  -1.20605   3.61814 
 C                    -1.20605  -1.20605   4.77598 
 C                    -1.20561  -1.2064    6.21522 
 C                    -0.34492  -2.06754   6.91166 
 C                    -2.06672  -0.34537   6.91181 
 C                    -0.35005  -2.06258   8.30332 
 H                     0.32126  -2.73382   6.36133 
 C                    -2.06181  -0.35053   8.30328 
 H                    -2.73267   0.32083   6.36112 
 C                    -1.20588  -1.20661   8.99785 
 H                     0.31836  -2.73123   8.84858 
 H                    -2.7303    0.3179    8.84872 
 H                    -1.20602  -1.20678   10.08974 
 
 Add virtual bond connecting atoms N49        and H34        Dist= 3.63D+00.
 Add virtual bond connecting atoms N49        and H35        Dist= 3.55D+00.
 Iteration  1 RMS(Cart)=  0.17635214 RMS(Int)=  0.69732369
 Iteration  2 RMS(Cart)=  0.12391067 RMS(Int)=  0.68940147
 Iteration  3 RMS(Cart)=  0.10884022 RMS(Int)=  0.68794388
 Iteration  4 RMS(Cart)=  0.08450172 RMS(Int)=  0.68944320
 Iteration  5 RMS(Cart)=  0.04414009 RMS(Int)=  0.69106989
 Iteration  6 RMS(Cart)=  0.04736353 RMS(Int)=  0.68729698
 Iteration  7 RMS(Cart)=  0.03582955 RMS(Int)=  0.68140791
 Iteration  8 RMS(Cart)=  0.02023563 RMS(Int)=  0.67697637
 Iteration  9 RMS(Cart)=  0.04126491 RMS(Int)=  0.67051654
 Iteration 10 RMS(Cart)=  0.01715022 RMS(Int)=  0.66647587
 Iteration 11 RMS(Cart)=  0.01027037 RMS(Int)=  0.66338050
 Iteration 12 RMS(Cart)=  0.00841392 RMS(Int)=  0.66083678
 Iteration 13 RMS(Cart)=  0.00747513 RMS(Int)=  0.65868952
 Iteration 14 RMS(Cart)=  0.00673988 RMS(Int)=  0.65686136
 Iteration 15 RMS(Cart)=  0.00607298 RMS(Int)=  0.65530400
 Iteration 16 RMS(Cart)=  0.00544236 RMS(Int)=  0.65398103
 Iteration 17 RMS(Cart)=  0.00482426 RMS(Int)=  0.65285114
 Iteration 18 RMS(Cart)=  0.00449755 RMS(Int)=  0.65185568
 Iteration 19 RMS(Cart)=  0.00416867 RMS(Int)=  0.65096931
 Iteration 20 RMS(Cart)=  0.00386914 RMS(Int)=  0.65017393
 Iteration 21 RMS(Cart)=  0.00371805 RMS(Int)=  0.64943946
 Iteration 22 RMS(Cart)=  0.00360979 RMS(Int)=  0.64875532
 Iteration 23 RMS(Cart)=  0.00352558 RMS(Int)=  0.64811468
 Iteration 24 RMS(Cart)=  0.00345353 RMS(Int)=  0.64751279
 Iteration 25 RMS(Cart)=  0.00338846 RMS(Int)=  0.64694603
 Iteration 26 RMS(Cart)=  0.00332799 RMS(Int)=  0.64641136
 Iteration 27 RMS(Cart)=  0.00327095 RMS(Int)=  0.64590622
 Iteration 28 RMS(Cart)=  0.00321671 RMS(Int)=  0.64542834
 Iteration 29 RMS(Cart)=  0.00316488 RMS(Int)=  0.64497572
 Iteration 30 RMS(Cart)=  0.00311520 RMS(Int)=  0.64454656
 Iteration 31 RMS(Cart)=  0.00306729 RMS(Int)=  0.64413927
 Iteration 32 RMS(Cart)=  0.00302121 RMS(Int)=  0.64375241
 Iteration 33 RMS(Cart)=  0.00297687 RMS(Int)=  0.64338465
 Iteration 34 RMS(Cart)=  0.00293418 RMS(Int)=  0.64303478
 Iteration 35 RMS(Cart)=  0.00289302 RMS(Int)=  0.64270172
 Iteration 36 RMS(Cart)=  0.00285382 RMS(Int)=  0.64238335
 Iteration 37 RMS(Cart)=  0.00281583 RMS(Int)=  0.64207830
 Iteration 38 RMS(Cart)=  0.00277922 RMS(Int)=  0.64178569
 Iteration 39 RMS(Cart)=  0.00274386 RMS(Int)=  0.64150488
 Iteration 40 RMS(Cart)=  0.00270965 RMS(Int)=  0.64123534
 Iteration 41 RMS(Cart)=  0.00267656 RMS(Int)=  0.64097659
 Iteration 42 RMS(Cart)=  0.00264454 RMS(Int)=  0.64072819
 Iteration 43 RMS(Cart)=  0.00261354 RMS(Int)=  0.64048974
 Iteration 44 RMS(Cart)=  0.00258352 RMS(Int)=  0.64026087
 Iteration 45 RMS(Cart)=  0.00255446 RMS(Int)=  0.64004122
 Iteration 46 RMS(Cart)=  0.00252630 RMS(Int)=  0.63983047
 Iteration 47 RMS(Cart)=  0.00249903 RMS(Int)=  0.63962830
 Iteration 48 RMS(Cart)=  0.00247259 RMS(Int)=  0.63943442
 Iteration 49 RMS(Cart)=  0.00244697 RMS(Int)=  0.63924856
 Iteration 50 RMS(Cart)=  0.00242212 RMS(Int)=  0.63907046
 Iteration 51 RMS(Cart)=  0.00239803 RMS(Int)=  0.63889987
 Iteration 52 RMS(Cart)=  0.00237466 RMS(Int)=  0.63873656
 Iteration 53 RMS(Cart)=  0.00235198 RMS(Int)=  0.63858031
 Iteration 54 RMS(Cart)=  0.00232997 RMS(Int)=  0.63843090
 Iteration 55 RMS(Cart)=  0.00230860 RMS(Int)=  0.63828814
 Iteration 56 RMS(Cart)=  0.00228786 RMS(Int)=  0.63815184
 Iteration 57 RMS(Cart)=  0.00226770 RMS(Int)=  0.63802181
 Iteration 58 RMS(Cart)=  0.00224813 RMS(Int)=  0.63789790
 Iteration 59 RMS(Cart)=  0.00222910 RMS(Int)=  0.63777993
 Iteration 60 RMS(Cart)=  0.00221061 RMS(Int)=  0.63766774
 Iteration 61 RMS(Cart)=  0.00219264 RMS(Int)=  0.63756120
 Iteration 62 RMS(Cart)=  0.00217515 RMS(Int)=  0.63746015
 Iteration 63 RMS(Cart)=  0.00215815 RMS(Int)=  0.63736446
 Iteration 64 RMS(Cart)=  0.00214161 RMS(Int)=  0.63727401
 Iteration 65 RMS(Cart)=  0.00212551 RMS(Int)=  0.63718867
 Iteration 66 RMS(Cart)=  0.00210984 RMS(Int)=  0.63710833
 Iteration 67 RMS(Cart)=  0.00209459 RMS(Int)=  0.63703286
 Iteration 68 RMS(Cart)=  0.00207974 RMS(Int)=  0.63696216
 Iteration 69 RMS(Cart)=  0.00206527 RMS(Int)=  0.63689613
 Iteration 70 RMS(Cart)=  0.00205117 RMS(Int)=  0.63683467
 Iteration 71 RMS(Cart)=  0.00203744 RMS(Int)=  0.63677768
 Iteration 72 RMS(Cart)=  0.00202405 RMS(Int)=  0.63672508
 Iteration 73 RMS(Cart)=  0.00201099 RMS(Int)=  0.63667677
 Iteration 74 RMS(Cart)=  0.00199826 RMS(Int)=  0.63663267
 Iteration 75 RMS(Cart)=  0.00198584 RMS(Int)=  0.63659271
 Iteration 76 RMS(Cart)=  0.00197373 RMS(Int)=  0.63655680
 Iteration 77 RMS(Cart)=  0.00196190 RMS(Int)=  0.63652487
 Iteration 78 RMS(Cart)=  0.00195035 RMS(Int)=  0.63649685
 Iteration 79 RMS(Cart)=  0.00193907 RMS(Int)=  0.63647268
 Iteration 80 RMS(Cart)=  0.00192805 RMS(Int)=  0.63645228
 Iteration 81 RMS(Cart)=  0.00191728 RMS(Int)=  0.63643559
 Iteration 82 RMS(Cart)=  0.00190675 RMS(Int)=  0.63642256
 Iteration 83 RMS(Cart)=  0.00189645 RMS(Int)=  0.63641313
 Iteration 84 RMS(Cart)=  0.00188637 RMS(Int)=  0.63640723
 Iteration 85 RMS(Cart)=  0.00187650 RMS(Int)=  0.63640482
 Iteration 86 RMS(Cart)=  0.00186683 RMS(Int)=  0.63640584
 Iteration 87 RMS(Cart)=  0.00185736 RMS(Int)=  0.63641025
 Iteration 88 RMS(Cart)=  0.00184806 RMS(Int)=  0.63641800
 Iteration 89 RMS(Cart)=  0.00183894 RMS(Int)=  0.63642904
 Iteration 90 RMS(Cart)=  0.00182998 RMS(Int)=  0.63644332
 Iteration 91 RMS(Cart)=  0.00182117 RMS(Int)=  0.63646081
 Iteration 92 RMS(Cart)=  0.00181251 RMS(Int)=  0.63648147
 Iteration 93 RMS(Cart)=  0.00180397 RMS(Int)=  0.63650526
 Iteration 94 RMS(Cart)=  0.00179556 RMS(Int)=  0.63653213
 Iteration 95 RMS(Cart)=  0.00178727 RMS(Int)=  0.63656205
 Iteration 96 RMS(Cart)=  0.00177907 RMS(Int)=  0.63659499
 Iteration 97 RMS(Cart)=  0.00177096 RMS(Int)=  0.63663092
 Iteration 98 RMS(Cart)=  0.00176294 RMS(Int)=  0.63666980
 Iteration 99 RMS(Cart)=  0.00175497 RMS(Int)=  0.63671160
 Iteration100 RMS(Cart)=  0.00174707 RMS(Int)=  0.63675629
 New curvilinear step not converged.
 FormGI is forming the generalized inverse of G from B-inverse, IUseBI=4.
 RedQX1 iteration     1 Try  1 RMS(Cart)=  0.45740831 RMS(Int)=  0.67517302 XScale=  8.63768443
 RedQX1 iteration     1 Try  2 RMS(Cart)=  0.46177432 RMS(Int)=  0.64577591 XScale=  4.22313778
 RedQX1 iteration     1 Try  3 RMS(Cart)=  0.49249888 RMS(Int)=  0.63462276 XScale=  2.70725244
 RedQX1 iteration     1 Try  4 RMS(Cart)=  0.61695027 RMS(Int)=  0.64319915 XScale=  1.93446254
 RedQX1 iteration     1 Try  5 RMS(Cart)=  1.01933193 RMS(Int)=  0.68989006 XScale=  1.34868648
 RedQX1 iteration     1 Try  6 RMS(Cart)=  0.85586581 RMS(Int)=  0.72537165 XScale=  1.12572091
 RedQX1 iteration     2 Try  1 RMS(Cart)=  0.17620752 RMS(Int)=  0.72828990 XScale=  1.10065332
 RedQX1 iteration     2 Try  2 RMS(Cart)=  0.22498122 RMS(Int)=  0.73919025 XScale=  1.05944520
 RedQX1 iteration     2 Try  3 RMS(Cart)=  0.31806372 RMS(Int)=  0.76974753 XScale=  0.98763384
 RedQX1 iteration     3 Try  1 RMS(Cart)=  0.19083823 RMS(Int)=  0.75485557 XScale=  1.01875539
 RedQX1 iteration     3 Try  2 RMS(Cart)=  0.25422401 RMS(Int)=  0.78641249 XScale=  0.95724522
 RedQX1 iteration     4 Try  1 RMS(Cart)=  0.20337921 RMS(Int)=  0.77898354 XScale=  0.97028890
 RedQX1 iteration     5 Try  1 RMS(Cart)=  0.04067584 RMS(Int)=  0.75894673 XScale=  1.00964910
 RedQX1 iteration     5 Try  2 RMS(Cart)=  0.04294143 RMS(Int)=  0.76362414 XScale=  0.99977362
 RedQX1 iteration     5 Try  3 RMS(Cart)=  0.04545703 RMS(Int)=  0.76898129 XScale=  0.98904512
 RedQX1 iteration     6 Try  1 RMS(Cart)=  0.04182046 RMS(Int)=  0.76853576 XScale=  0.98991648
 RedQX1 iteration     7 Try  1 RMS(Cart)=  0.00836409 RMS(Int)=  0.76457511 XScale=  0.99782713
 RedQX1 iteration     8 Try  1 RMS(Cart)=  0.00167282 RMS(Int)=  0.76381307 XScale=  0.99938536
 RedQX1 iteration     8 Try  2 RMS(Cart)=  0.00167643 RMS(Int)=  0.76400299 XScale=  0.99899586
 RedQX1 iteration     9 Try  1 RMS(Cart)=  0.00167374 RMS(Int)=  0.76400268 XScale=  0.99899649
 RedQX1 iteration    10 Try  1 RMS(Cart)=  0.00033475 RMS(Int)=  0.76385094 XScale=  0.99930763
 RedQX1 iteration    10 Try  2 RMS(Cart)=  0.00033489 RMS(Int)=  0.76388886 XScale=  0.99922984
 RedQX1 iteration    10 Try  3 RMS(Cart)=  0.00033504 RMS(Int)=  0.76392681 XScale=  0.99915201
 RedQX1 iteration    10 Try  4 RMS(Cart)=  0.00033518 RMS(Int)=  0.76396479 XScale=  0.99907413
 RedQX1 iteration    10 Try  5 RMS(Cart)=  0.00033533 RMS(Int)=  0.76400282 XScale=  0.99899620
 RedQX1 iteration    11 Try  1 RMS(Cart)=  0.00033490 RMS(Int)=  0.76400278 XScale=  0.99899630
 RedQX1 iteration    12 Try  1 RMS(Cart)=  0.00006698 RMS(Int)=  0.76397239 XScale=  0.99905857
 RedQX1 iteration    12 Try  2 RMS(Cart)=  0.00006699 RMS(Int)=  0.76397998 XScale=  0.99904300
 RedQX1 iteration    12 Try  3 RMS(Cart)=  0.00006699 RMS(Int)=  0.76398758 XScale=  0.99902743
 RedQX1 iteration    12 Try  4 RMS(Cart)=  0.00006700 RMS(Int)=  0.76399518 XScale=  0.99901186
 RedQX1 iteration    12 Try  5 RMS(Cart)=  0.00006700 RMS(Int)=  0.76400278 XScale=  0.99899629
 RedQX1 iteration    13 Try  1 RMS(Cart)=  0.00006699 RMS(Int)=  0.76400278 XScale=  0.99899629
 RedQX1 iteration    14 Try  1 RMS(Cart)=  0.00001340 RMS(Int)=  0.76399670 XScale=  0.99900875
 RedQX1 iteration    14 Try  2 RMS(Cart)=  0.00001340 RMS(Int)=  0.76399822 XScale=  0.99900563
 RedQX1 iteration    14 Try  3 RMS(Cart)=  0.00001340 RMS(Int)=  0.76399974 XScale=  0.99900252
 RedQX1 iteration    14 Try  4 RMS(Cart)=  0.00001340 RMS(Int)=  0.76400126 XScale=  0.99899941
 RedQX1 iteration    15 Try  1 RMS(Cart)=  0.00001340 RMS(Int)=  0.76400126 XScale=  0.99899941
 RedQX1 iteration    16 Try  1 RMS(Cart)=  0.00000268 RMS(Int)=  0.76400004 XScale=  0.99900190
 RedQX1 iteration    16 Try  2 RMS(Cart)=  0.00000268 RMS(Int)=  0.76400035 XScale=  0.99900127
 RedQX1 iteration    16 Try  3 RMS(Cart)=  0.00000268 RMS(Int)=  0.76400065 XScale=  0.99900065
 RedQX1 iteration    16 Try  4 RMS(Cart)=  0.00000268 RMS(Int)=  0.76400096 XScale=  0.99900003
 RedQX1 iteration    16 Try  5 RMS(Cart)=  0.00000268 RMS(Int)=  0.76400126 XScale=  0.99899941
 RedQX1 iteration    17 Try  1 RMS(Cart)=  0.00000268 RMS(Int)=  0.76400126 XScale=  0.99899941
 RedQX1 iteration    18 Try  1 RMS(Cart)=  0.00000054 RMS(Int)=  0.76400102 XScale=  0.99899990
 RedQX1 iteration    19 Try  1 RMS(Cart)=  0.00000011 RMS(Int)=  0.76400097 XScale=  0.99900000
 RedQX1 iteration    19 Try  2 RMS(Cart)=  0.00000011 RMS(Int)=  0.76400098 XScale=  0.99899998
 RedQX1 iteration    20 Try  1 RMS(Cart)=  0.00000011 RMS(Int)=  0.76400098 XScale=  0.99899998
 Old curvilinear step not converged, using linear step:
 SCX= 8.26D+00 DXMaxT= 4.94-324 SCLim= 0.00D+00 Fact= 0.00D+00
 RedCar/ORedCr failed for GTrans.
 Error termination via Lnk1e in /home1/apps/gaussian/16rA.03/g16/l101.exe at Sat Oct 22 00:25:13 2022.
 Job cpu time:       0 days  0 hours  0 minutes 17.2 seconds.
 Elapsed time:       0 days  0 hours  0 minutes  2.1 seconds.
 File lengths (MBytes):  RWF=      6 Int=      0 D2E=      0 Chk=      1 Scr=      1
