 Entering Gaussian System, Link 0=g16
 Initial command:
 /home1/apps/gaussian/16rA.03/g16/l1.exe "/tmp/Gau-224825.inp" -scrdir="/tmp/"
 Entering Link 1 = /home1/apps/gaussian/16rA.03/g16/l1.exe PID=    224827.
  
 Copyright (c) 1988,1990,1992,1993,1995,1998,2003,2009,2016,
            Gaussian, Inc.  All Rights Reserved.
  
 This is part of the Gaussian(R) 16 program.  It is based on
 the Gaussian(R) 09 system (copyright 2009, Gaussian, Inc.),
 the Gaussian(R) 03 system (copyright 2003, Gaussian, Inc.),
 the Gaussian(R) 98 system (copyright 1998, Gaussian, Inc.),
 the Gaussian(R) 94 system (copyright 1995, Gaussian, Inc.),
 the Gaussian 92(TM) system (copyright 1992, Gaussian, Inc.),
 the Gaussian 90(TM) system (copyright 1990, Gaussian, Inc.),
 the Gaussian 88(TM) system (copyright 1988, Gaussian, Inc.),
 the Gaussian 86(TM) system (copyright 1986, Carnegie Mellon
 University), and the Gaussian 82(TM) system (copyright 1983,
 Carnegie Mellon University). Gaussian is a federally registered
 trademark of Gaussian, Inc.
  
 This software contains proprietary and confidential information,
 including trade secrets, belonging to Gaussian, Inc.
  
 This software is provided under written license and may be
 used, copied, transmitted, or stored only in accord with that
 written license.
  
 The following legend is applicable only to US Government
 contracts under FAR:
  
                    RESTRICTED RIGHTS LEGEND
  
 Use, reproduction and disclosure by the US Government is
 subject to restrictions as set forth in subparagraphs (a)
 and (c) of the Commercial Computer Software - Restricted
 Rights clause in FAR 52.227-19.
  
 Gaussian, Inc.
 340 Quinnipiac St., Bldg. 40, Wallingford CT 06492
  
  
 ---------------------------------------------------------------
 Warning -- This program may not be used in any manner that
 competes with the business of Gaussian, Inc. or will provide
 assistance to any competitor of Gaussian, Inc.  The licensee
 of this program is prohibited from giving any competitor of
 Gaussian, Inc. access to this program.  By using this program,
 the user acknowledges that Gaussian, Inc. is engaged in the
 business of creating and licensing software in the field of
 computational chemistry and represents and warrants to the
 licensee that it is not a competitor of Gaussian, Inc. and that
 it will not use this program in any manner prohibited above.
 ---------------------------------------------------------------
  

 Cite this work as:
 Gaussian 16, Revision A.03,
 M. J. Frisch, G. W. Trucks, H. B. Schlegel, G. E. Scuseria, 
 M. A. Robb, J. R. Cheeseman, G. Scalmani, V. Barone, 
 G. A. Petersson, H. Nakatsuji, X. Li, M. Caricato, A. V. Marenich, 
 J. Bloino, B. G. Janesko, R. Gomperts, B. Mennucci, H. P. Hratchian, 
 J. V. Ortiz, A. F. Izmaylov, J. L. Sonnenberg, D. Williams-Young, 
 F. Ding, F. Lipparini, F. Egidi, J. Goings, B. Peng, A. Petrone, 
 T. Henderson, D. Ranasinghe, V. G. Zakrzewski, J. Gao, N. Rega, 
 G. Zheng, W. Liang, M. Hada, M. Ehara, K. Toyota, R. Fukuda, 
 J. Hasegawa, M. Ishida, T. Nakajima, Y. Honda, O. Kitao, H. Nakai, 
 T. Vreven, K. Throssell, J. A. Montgomery, Jr., J. E. Peralta, 
 F. Ogliaro, M. J. Bearpark, J. J. Heyd, E. N. Brothers, K. N. Kudin, 
 V. N. Staroverov, T. A. Keith, R. Kobayashi, J. Normand, 
 K. Raghavachari, A. P. Rendell, J. C. Burant, S. S. Iyengar, 
 J. Tomasi, M. Cossi, J. M. Millam, M. Klene, C. Adamo, R. Cammi, 
 J. W. Ochterski, R. L. Martin, K. Morokuma, O. Farkas, 
 J. B. Foresman, and D. J. Fox, Gaussian, Inc., Wallingford CT, 2016.
 
 ******************************************
 Gaussian 16:  ES64L-G16RevA.03 25-Dec-2016
                22-Oct-2022 
 ******************************************
 %Chk=checkpoint.chk
 %NProcShared=12
 Will use up to   12 processors via shared memory.
 ------------------------------------------------------
 # wB97XD Gen Opt=(QST2) SCRF=(Solvent=TetraHydroFuran)
 ------------------------------------------------------
 1/5=1,18=20,26=3,27=202,38=1/1,3;
 2/9=110,12=2,17=6,18=5,40=1/2;
 3/5=7,11=2,25=1,30=1,70=2201,71=1,72=20,74=-58/1,2,3;
 4//1;
 5/5=2,38=5,53=20/2;
 6/7=2,8=2,9=2,10=2,28=1/1;
 7//1,2,3,16;
 1/5=1,18=20,26=3,27=202/3(2);
 2/9=110/2;
 99//99;
 2/9=110/2;
 3/5=7,6=1,11=2,25=1,30=1,70=2205,71=1,72=20,74=-58,82=7/1,2,3;
 4/5=5,16=3,69=1/1;
 5/5=2,38=5,53=20/2;
 7//1,2,3,16;
 1/5=1,18=20,26=3,27=202/3(-5);
 2/9=110/2;
 6/7=2,8=2,9=2,10=2,19=2,28=1/1;
 99/9=1/99;
 ----------------------------
 Mn Transition State Reactant
 ----------------------------
 Symbolic Z-matrix:
 Charge =  0 Multiplicity = 1
 Mn                    0.        0.        0. 
 C                    -0.09679   1.8323    0.02295 
 C                     0.        0.       -1.82342 
 C                     1.83282   0.       -0.02938 
 Br                    2.3094    2.3094    2.3094 
 N                    -0.04922  -2.15482   0.09332 
 N                    -2.15153  -0.14036   0.09515 
 C                     0.52385  -2.93988  -0.8355 
 C                     0.57609  -4.32182  -0.71618 
 C                     0.03787  -4.93262   0.41495 
 C                    -0.56724  -4.13205   1.38331 
 C                    -0.59422  -2.75751   1.15179 
 C                    -2.76019  -0.33999   1.26803 
 C                    -4.08404  -0.75052   1.40528 
 C                    -2.90821  -0.24504  -1.01025 
 C                    -4.25761  -0.57119  -0.97276 
 C                    -4.8572   -0.85573   0.2508 
 C                    -4.54612  -1.14763   2.76568 
 C                    -1.06072  -4.64508   2.69242 
 C                    -2.36035  -4.39435   3.17469 
 C                    -4.2951   -2.45577   3.22064 
 C                    -2.7088   -4.77698   4.4776 
 C                    -4.6235   -2.81682   4.53378 
 C                    -5.16246  -0.23395   3.6234 
 C                    -0.16193  -5.33835   3.51187 
 C                    -0.5204   -5.73496   4.79711 
 C                    -5.49479  -0.60032   4.92642 
 C                    -5.20842  -1.88092   5.39075 
 C                    -1.78362  -5.43139   5.29359 
 S                    -3.59561  -3.66717   2.11779 
 S                    -4.34059  -4.47249   5.11215 
 H                     1.05087  -4.91025  -1.50139 
 H                     0.08951  -6.01597   0.54182 
 H                    -1.07315  -2.12266   1.89001 
 H                    -2.16282  -0.19695   2.1652 
 H                    -2.4226   -0.06909  -1.96947 
 H                    -4.81913  -0.6322   -1.90505 
 H                    -5.90099  -1.1706    0.30616 
 H                    -5.36522   0.7782    3.26819 
 H                     0.84657  -5.53732   3.14359 
 H                     0.19986  -6.26023   5.42631 
 H                    -5.96589   0.12432   5.59251 
 H                    -5.4428   -2.16193   6.41931 
 H                    -2.05931  -5.70427   6.31399 
 O                     0.06255   0.01915  -2.96537 
 O                     2.97377  -0.00521  -0.04518 
 O                    -0.17883   2.9698    0.0391 
 H                     0.9665   -2.44597  -1.70172 
 N                     0.1205   -0.06435   2.03055 
 C                     0.1757   -0.32041   3.1556 
 C                     0.0988   -0.78664   4.50696 
 C                     1.18058  -0.65782   5.389 
 C                    -1.08395  -1.43608   4.90265 
 C                     1.07101  -1.1882    6.67028 
 H                     2.09302  -0.15307   5.06933 
 C                    -1.1749   -1.96428   6.18414 
 H                    -1.92637  -1.52866   4.21411 
 C                    -0.09853  -1.84109   7.06447 
 H                     1.90634  -1.09472   7.36578 
 H                    -2.08869  -2.47607   6.49182 
 H                    -0.17211  -2.25847   8.07044 
 
 Add virtual bond connecting atoms C2         and Br5        Dist= 6.34D+00.
 Add virtual bond connecting atoms C4         and Br5        Dist= 6.28D+00.
 Add virtual bond connecting atoms O46        and Br5        Dist= 6.36D+00.
 Add virtual bond connecting atoms N49        and Br5        Dist= 6.12D+00.
 ---------------------------
 Mn Transition State Product
 ---------------------------
 Symbolic Z-matrix:
 Charge =  0 Multiplicity = 1
 Mn                    0.        0.        0. 
 C                    -0.08831   1.81915   0.02694 
 C                     0.        0.       -1.79318 
 C                     1.82129   0.        0.02701 
 Br                    0.21406   0.22525   2.60296 
 N                    -0.00198  -2.15626   0.10267 
 N                    -2.15359  -0.10666   0.10261 
 C                     0.38734  -2.90055  -0.94769 
 C                     0.33894  -4.28645  -0.94857 
 C                    -0.15783  -4.94905   0.17197 
 C                    -0.57167  -4.19114   1.26468 
 C                    -0.44573  -2.80197   1.18369 
 C                    -2.77703  -0.58203   1.18326 
 C                    -4.15855  -0.77451   1.26439 
 C                    -2.91591   0.24739  -0.9473 
 C                    -4.29788   0.13244  -0.94805 
 C                    -4.93564  -0.39652   0.17216 
 C                    -4.73565  -1.36773   2.50277 
 C                    -1.13591  -4.79615   2.50328 
 C                    -2.48294  -4.59586   2.85783 
 C                    -4.47     -2.70335   2.85753 
 C                    -2.9782   -5.11928   4.05963 
 C                    -4.96894  -3.2234    4.05928 
 C                    -5.54655  -0.59398   3.33896 
 C                    -0.32361  -5.56806   3.33979 
 C                    -0.82204  -6.0942    4.52932 
 C                    -6.04809  -1.11734   4.52841 
 C                    -5.74193  -2.42245   4.90321 
 C                    -2.14059  -5.85203   4.90386 
 S                    -3.58496  -3.76369   1.73597 
 S                    -4.6875   -4.9209    4.50034 
 H                     0.67663  -4.83606  -1.82736 
 H                    -0.23113  -6.03846   0.19274 
 H                    -0.69729  -2.18819   2.04804 
 H                    -2.15175  -0.80469   2.04727 
 H                    -2.4021    0.64317  -1.82367 
 H                    -4.86325   0.44411  -1.82647 
 H                    -6.02029  -0.52198   0.19305 
 H                    -5.76345   0.43908   3.05961 
 H                     0.71885  -5.73439   3.0606 
 H                    -0.17222  -6.6814    5.18043 
 H                    -6.66649  -0.49688   5.17925 
 H                    -6.10842  -2.82852   5.84804 
 H                    -2.52842  -6.23768   5.84873 
 O                     0.04791   0.05036  -2.9414 
 O                     2.96474  -0.00968   0.05082 
 O                    -0.15349   2.9608    0.05043 
 H                     0.75715  -2.36822  -1.82434 
 N                    -1.50756  -1.50756   4.52267 
 C                    -1.34783  -1.34783   5.65826 
 C                    -1.14885  -1.14964   7.06984 
 C                    -0.19209  -1.91471   7.75296 
 C                    -1.91387  -0.19252   7.75306 
 C                    -0.00523  -1.71777   9.1179 
 H                     0.39818  -2.6569    7.21321 
 C                    -1.71701  -0.00572   9.11783 
 H                    -2.65579   0.39771   7.21291 
 C                    -0.76526  -0.76599   9.79907 
 H                     0.7384   -2.3112    9.65272 
 H                    -2.31025   0.73795   9.6528 
 H                    -0.61477  -0.61553   10.87002 
 
 Add virtual bond connecting atoms N49        and H34        Dist= 5.09D+00.
 Add virtual bond connecting atoms N49        and H35        Dist= 5.01D+00.
 Iteration  1 RMS(Cart)=  0.20762120 RMS(Int)=  0.71546472
 Iteration  2 RMS(Cart)=  0.09133459 RMS(Int)=  0.70341423
 Iteration  3 RMS(Cart)=  0.08929100 RMS(Int)=  0.69494232
 Iteration  4 RMS(Cart)=  0.11745049 RMS(Int)=  0.68470209
 Iteration  5 RMS(Cart)=  0.09071210 RMS(Int)=  0.67839236
 Iteration  6 RMS(Cart)=  0.08034151 RMS(Int)=  0.67487990
 Iteration  7 RMS(Cart)=  0.05924828 RMS(Int)=  0.67319522
 Iteration  8 RMS(Cart)=  0.02560464 RMS(Int)=  0.67215082
 Iteration  9 RMS(Cart)=  0.02022030 RMS(Int)=  0.67152260
 Iteration 10 RMS(Cart)=  0.01483166 RMS(Int)=  0.67123830
 Iteration 11 RMS(Cart)=  0.01194280 RMS(Int)=  0.67131385
 Iteration 12 RMS(Cart)=  0.01052780 RMS(Int)=  0.67161391
 Iteration 13 RMS(Cart)=  0.01215449 RMS(Int)=  0.67205972
 Iteration 14 RMS(Cart)=  0.01268829 RMS(Int)=  0.67263999
 Iteration 15 RMS(Cart)=  0.01286765 RMS(Int)=  0.67334223
 Iteration 16 RMS(Cart)=  0.01319738 RMS(Int)=  0.67416359
 Iteration 17 RMS(Cart)=  0.01346344 RMS(Int)=  0.67501130
 Iteration 18 RMS(Cart)=  0.01309077 RMS(Int)=  0.67578605
 Iteration 19 RMS(Cart)=  0.01216491 RMS(Int)=  0.67654867
 Iteration 20 RMS(Cart)=  0.01138790 RMS(Int)=  0.67720194
 Iteration 21 RMS(Cart)=  0.00933893 RMS(Int)=  0.67775537
 Iteration 22 RMS(Cart)=  0.00822933 RMS(Int)=  0.67823736
 Iteration 23 RMS(Cart)=  0.00738639 RMS(Int)=  0.67866262
 Iteration 24 RMS(Cart)=  0.00645157 RMS(Int)=  0.67902692
 Iteration 25 RMS(Cart)=  0.00557304 RMS(Int)=  0.67933618
 Iteration 26 RMS(Cart)=  0.00485822 RMS(Int)=  0.67960099
 Iteration 27 RMS(Cart)=  0.00426060 RMS(Int)=  0.67982859
 Iteration 28 RMS(Cart)=  0.00374451 RMS(Int)=  0.68002451
 Iteration 29 RMS(Cart)=  0.00329321 RMS(Int)=  0.68019280
 Iteration 30 RMS(Cart)=  0.00289831 RMS(Int)=  0.68033571
 Iteration 31 RMS(Cart)=  0.00254884 RMS(Int)=  0.68045631
 Iteration 32 RMS(Cart)=  0.00223787 RMS(Int)=  0.68055745
 Iteration 33 RMS(Cart)=  0.00196335 RMS(Int)=  0.68064166
 Iteration 34 RMS(Cart)=  0.00172159 RMS(Int)=  0.68071116
 Iteration 35 RMS(Cart)=  0.00150909 RMS(Int)=  0.68076792
 Iteration 36 RMS(Cart)=  0.00132252 RMS(Int)=  0.68081365
 Iteration 37 RMS(Cart)=  0.00115892 RMS(Int)=  0.68084984
 Iteration 38 RMS(Cart)=  0.00101559 RMS(Int)=  0.68087782
 Iteration 39 RMS(Cart)=  0.00089010 RMS(Int)=  0.68089872
 Iteration 40 RMS(Cart)=  0.00078034 RMS(Int)=  0.68091355
 Iteration 41 RMS(Cart)=  0.00068438 RMS(Int)=  0.68092317
 Iteration 42 RMS(Cart)=  0.00060057 RMS(Int)=  0.68092836
 Iteration 43 RMS(Cart)=  0.00052740 RMS(Int)=  0.68092976
 Iteration 44 RMS(Cart)=  0.00046359 RMS(Int)=  0.68092796
 Iteration 45 RMS(Cart)=  0.00040799 RMS(Int)=  0.68092345
 Iteration 46 RMS(Cart)=  0.00035959 RMS(Int)=  0.68091666
 Iteration 47 RMS(Cart)=  0.00031752 RMS(Int)=  0.68090797
 Iteration 48 RMS(Cart)=  0.00028100 RMS(Int)=  0.68089771
 Iteration 49 RMS(Cart)=  0.00024936 RMS(Int)=  0.68088614
 Iteration 50 RMS(Cart)=  0.00022200 RMS(Int)=  0.68087352
 Iteration 51 RMS(Cart)=  0.00019840 RMS(Int)=  0.68086004
 Iteration 52 RMS(Cart)=  0.00017811 RMS(Int)=  0.68084589
 Iteration 53 RMS(Cart)=  0.00016070 RMS(Int)=  0.68083122
 Iteration 54 RMS(Cart)=  0.00014582 RMS(Int)=  0.68081616
 Iteration 55 RMS(Cart)=  0.00013313 RMS(Int)=  0.68080082
 Iteration 56 RMS(Cart)=  0.00012235 RMS(Int)=  0.68078530
 Iteration 57 RMS(Cart)=  0.00011320 RMS(Int)=  0.68076968
 Iteration 58 RMS(Cart)=  0.00010545 RMS(Int)=  0.68075403
 Iteration 59 RMS(Cart)=  0.00009889 RMS(Int)=  0.68073840
 Iteration 60 RMS(Cart)=  0.00009332 RMS(Int)=  0.68072285
 Iteration 61 RMS(Cart)=  0.00008859 RMS(Int)=  0.68070741
 Iteration 62 RMS(Cart)=  0.00008453 RMS(Int)=  0.68069213
 Iteration 63 RMS(Cart)=  0.00008104 RMS(Int)=  0.68067702
 Iteration 64 RMS(Cart)=  0.00007800 RMS(Int)=  0.68066212
 Iteration 65 RMS(Cart)=  0.00007533 RMS(Int)=  0.68064743
 Iteration 66 RMS(Cart)=  0.00007296 RMS(Int)=  0.68063299
 Iteration 67 RMS(Cart)=  0.00007082 RMS(Int)=  0.68061879
 Iteration 68 RMS(Cart)=  0.00006887 RMS(Int)=  0.68060485
 Iteration 69 RMS(Cart)=  0.00006706 RMS(Int)=  0.68059118
 Iteration 70 RMS(Cart)=  0.00006545 RMS(Int)=  0.68057774
 Iteration 71 RMS(Cart)=  0.00006404 RMS(Int)=  0.68056448
 Iteration 72 RMS(Cart)=  0.00006270 RMS(Int)=  0.68055141
 Iteration 73 RMS(Cart)=  0.00006139 RMS(Int)=  0.68053854
 Iteration 74 RMS(Cart)=  0.00006010 RMS(Int)=  0.68052587
 Iteration 75 RMS(Cart)=  0.00005883 RMS(Int)=  0.68051340
 Iteration 76 RMS(Cart)=  0.00005758 RMS(Int)=  0.68050114
 Iteration 77 RMS(Cart)=  0.00005634 RMS(Int)=  0.68048909
 Iteration 78 RMS(Cart)=  0.00005513 RMS(Int)=  0.68047725
 Iteration 79 RMS(Cart)=  0.00005392 RMS(Int)=  0.68046563
 Iteration 80 RMS(Cart)=  0.00005274 RMS(Int)=  0.68045423
 Iteration 81 RMS(Cart)=  0.00005157 RMS(Int)=  0.68044304
 Iteration 82 RMS(Cart)=  0.00005042 RMS(Int)=  0.68043207
 Iteration 83 RMS(Cart)=  0.00004929 RMS(Int)=  0.68042132
 Iteration 84 RMS(Cart)=  0.00004817 RMS(Int)=  0.68041079
 Iteration 85 RMS(Cart)=  0.00004708 RMS(Int)=  0.68040047
 Iteration 86 RMS(Cart)=  0.00004600 RMS(Int)=  0.68039037
 Iteration 87 RMS(Cart)=  0.00004494 RMS(Int)=  0.68038047
 Iteration 88 RMS(Cart)=  0.00004390 RMS(Int)=  0.68037079
 Iteration 89 RMS(Cart)=  0.00004288 RMS(Int)=  0.68036131
 Iteration 90 RMS(Cart)=  0.00004188 RMS(Int)=  0.68035203
 Iteration 91 RMS(Cart)=  0.00004089 RMS(Int)=  0.68034295
 Iteration 92 RMS(Cart)=  0.00003993 RMS(Int)=  0.68033407
 Iteration 93 RMS(Cart)=  0.00003899 RMS(Int)=  0.68032538
 Iteration 94 RMS(Cart)=  0.00003806 RMS(Int)=  0.68031688
 Iteration 95 RMS(Cart)=  0.00003716 RMS(Int)=  0.68030856
 Iteration 96 RMS(Cart)=  0.00003627 RMS(Int)=  0.68030043
 Iteration 97 RMS(Cart)=  0.00003541 RMS(Int)=  0.68029248
 Iteration 98 RMS(Cart)=  0.00003456 RMS(Int)=  0.68028470
 Iteration 99 RMS(Cart)=  0.00003373 RMS(Int)=  0.68027709
 Iteration100 RMS(Cart)=  0.00003292 RMS(Int)=  0.68026965
 New curvilinear step not converged.
 FormGI is forming the generalized inverse of G from B-inverse, IUseBI=4.
 RedQX1 iteration     1 Try  1 RMS(Cart)=  0.37700943 RMS(Int)=  0.69258448 XScale=  8.59618561
 RedQX1 iteration     1 Try  2 RMS(Cart)=  0.38161075 RMS(Int)=  0.66012553 XScale=  4.23719872
 RedQX1 iteration     1 Try  3 RMS(Cart)=  0.40873722 RMS(Int)=  0.64388355 XScale=  2.75180752
 RedQX1 iteration     1 Try  4 RMS(Cart)=  0.49805887 RMS(Int)=  0.64554030 XScale=  1.96701053
 RedQX1 iteration     1 Try  5 RMS(Cart)=  0.82671241 RMS(Int)=  0.67865241 XScale=  1.38941790
 RedQX1 iteration     1 Try  6 RMS(Cart)=  0.70474033 RMS(Int)=  0.70482958 XScale=  1.16156348
 RedQX1 iteration     2 Try  1 RMS(Cart)=  0.14276272 RMS(Int)=  0.70510062 XScale=  1.13942038
 RedQX1 iteration     2 Try  2 RMS(Cart)=  0.17973446 RMS(Int)=  0.71104685 XScale=  1.10399743
 RedQX1 iteration     2 Try  3 RMS(Cart)=  0.25235417 RMS(Int)=  0.74944457 XScale=  1.01150169
 RedQX1 iteration     2 Try  4 RMS(Cart)=  0.65345603 RMS(Int)=  0.82195296 XScale=  0.94475738
 RedQX1 iteration     3 Try  1 RMS(Cart)=  0.26138241 RMS(Int)=  0.78527312 XScale=  1.00471323
 RedQX1 iteration     3 Try  2 RMS(Cart)=  0.27951680 RMS(Int)=  0.77460995 XScale=  0.97248815
 RedQX1 iteration     4 Try  1 RMS(Cart)=  0.22361344 RMS(Int)=  0.84069182 XScale=  0.95482951
 RedQX1 iteration     5 Try  1 RMS(Cart)=  0.04472269 RMS(Int)=  0.78551329 XScale=  1.00316852
 RedQX1 iteration     5 Try  2 RMS(Cart)=  0.04349343 RMS(Int)=  0.78965654 XScale=  0.99634696
 RedQX1 iteration     6 Try  1 RMS(Cart)=  0.04175369 RMS(Int)=  0.78942707 XScale=  0.99669738
 RedQX1 iteration     7 Try  1 RMS(Cart)=  0.00835074 RMS(Int)=  0.78606266 XScale=  1.00216829
 RedQX1 iteration     7 Try  2 RMS(Cart)=  0.00832529 RMS(Int)=  0.78675758 XScale=  1.00097708
 RedQX1 iteration     7 Try  3 RMS(Cart)=  0.00830378 RMS(Int)=  0.78760515 XScale=  0.99959069
 RedQX1 iteration     7 Try  4 RMS(Cart)=  0.00828547 RMS(Int)=  0.78861808 XScale=  0.99799813
 RedQX1 iteration     8 Try  1 RMS(Cart)=  0.00808662 RMS(Int)=  0.78859215 XScale=  0.99803830
 RedQX1 iteration     9 Try  1 RMS(Cart)=  0.00161732 RMS(Int)=  0.78779219 XScale=  0.99929268
 RedQX1 iteration     9 Try  2 RMS(Cart)=  0.00161670 RMS(Int)=  0.78798574 XScale=  0.99898660
 RedQX1 iteration    10 Try  1 RMS(Cart)=  0.00161411 RMS(Int)=  0.78798543 XScale=  0.99898710
 RedQX1 iteration    11 Try  1 RMS(Cart)=  0.00032282 RMS(Int)=  0.78783042 XScale=  0.99923206
 RedQX1 iteration    11 Try  2 RMS(Cart)=  0.00032280 RMS(Int)=  0.78786892 XScale=  0.99917112
 RedQX1 iteration    11 Try  3 RMS(Cart)=  0.00032277 RMS(Int)=  0.78790768 XScale=  0.99910985
 RedQX1 iteration    11 Try  4 RMS(Cart)=  0.00032275 RMS(Int)=  0.78794670 XScale=  0.99904826
 RedQX1 iteration    11 Try  5 RMS(Cart)=  0.00032272 RMS(Int)=  0.78798599 XScale=  0.99898634
 RedQX1 iteration    12 Try  1 RMS(Cart)=  0.00032231 RMS(Int)=  0.78798594 XScale=  0.99898642
 RedQX1 iteration    13 Try  1 RMS(Cart)=  0.00006446 RMS(Int)=  0.78795453 XScale=  0.99903591
 RedQX1 iteration    13 Try  2 RMS(Cart)=  0.00006446 RMS(Int)=  0.78796237 XScale=  0.99902355
 RedQX1 iteration    13 Try  3 RMS(Cart)=  0.00006446 RMS(Int)=  0.78797023 XScale=  0.99901117
 RedQX1 iteration    13 Try  4 RMS(Cart)=  0.00006446 RMS(Int)=  0.78797809 XScale=  0.99899879
 RedQX1 iteration    14 Try  1 RMS(Cart)=  0.00006445 RMS(Int)=  0.78797809 XScale=  0.99899879
 RedQX1 iteration    15 Try  1 RMS(Cart)=  0.00001289 RMS(Int)=  0.78797180 XScale=  0.99900870
 RedQX1 iteration    15 Try  2 RMS(Cart)=  0.00001289 RMS(Int)=  0.78797337 XScale=  0.99900622
 RedQX1 iteration    15 Try  3 RMS(Cart)=  0.00001289 RMS(Int)=  0.78797494 XScale=  0.99900374
 RedQX1 iteration    15 Try  4 RMS(Cart)=  0.00001289 RMS(Int)=  0.78797651 XScale=  0.99900127
 RedQX1 iteration    15 Try  5 RMS(Cart)=  0.00001289 RMS(Int)=  0.78797809 XScale=  0.99899879
 RedQX1 iteration    16 Try  1 RMS(Cart)=  0.00001289 RMS(Int)=  0.78797809 XScale=  0.99899879
 RedQX1 iteration    17 Try  1 RMS(Cart)=  0.00000258 RMS(Int)=  0.78797683 XScale=  0.99900077
 RedQX1 iteration    17 Try  2 RMS(Cart)=  0.00000258 RMS(Int)=  0.78797714 XScale=  0.99900027
 RedQX1 iteration    17 Try  3 RMS(Cart)=  0.00000258 RMS(Int)=  0.78797746 XScale=  0.99899978
 RedQX1 iteration    18 Try  1 RMS(Cart)=  0.00000258 RMS(Int)=  0.78797746 XScale=  0.99899978
 RedQX1 iteration    19 Try  1 RMS(Cart)=  0.00000052 RMS(Int)=  0.78797721 XScale=  0.99900018
 RedQX1 iteration    19 Try  2 RMS(Cart)=  0.00000052 RMS(Int)=  0.78797727 XScale=  0.99900008
 RedQX1 iteration    19 Try  3 RMS(Cart)=  0.00000052 RMS(Int)=  0.78797733 XScale=  0.99899998
 RedQX1 iteration    20 Try  1 RMS(Cart)=  0.00000052 RMS(Int)=  0.78797733 XScale=  0.99899998
 Old curvilinear step not converged, using linear step:
 SCX= 8.46D+00 DXMaxT= 4.94-324 SCLim= 0.00D+00 Fact= 0.00D+00
 RedCar/ORedCr failed for GTrans.
 Error termination via Lnk1e in /home1/apps/gaussian/16rA.03/g16/l101.exe at Sat Oct 22 00:25:19 2022.
 Job cpu time:       0 days  0 hours  0 minutes 13.2 seconds.
 Elapsed time:       0 days  0 hours  0 minutes  1.5 seconds.
 File lengths (MBytes):  RWF=      6 Int=      0 D2E=      0 Chk=      1 Scr=      1
