 Entering Gaussian System, Link 0=g16
 Initial command:
 /home1/apps/gaussian/16rA.03/g16/l1.exe "/tmp/Gau-277401.inp" -scrdir="/tmp/"
 Entering Link 1 = /home1/apps/gaussian/16rA.03/g16/l1.exe PID=    277403.
  
 Copyright (c) 1988,1990,1992,1993,1995,1998,2003,2009,2016,
            Gaussian, Inc.  All Rights Reserved.
  
 This is part of the Gaussian(R) 16 program.  It is based on
 the Gaussian(R) 09 system (copyright 2009, Gaussian, Inc.),
 the Gaussian(R) 03 system (copyright 2003, Gaussian, Inc.),
 the Gaussian(R) 98 system (copyright 1998, Gaussian, Inc.),
 the Gaussian(R) 94 system (copyright 1995, Gaussian, Inc.),
 the Gaussian 92(TM) system (copyright 1992, Gaussian, Inc.),
 the Gaussian 90(TM) system (copyright 1990, Gaussian, Inc.),
 the Gaussian 88(TM) system (copyright 1988, Gaussian, Inc.),
 the Gaussian 86(TM) system (copyright 1986, Carnegie Mellon
 University), and the Gaussian 82(TM) system (copyright 1983,
 Carnegie Mellon University). Gaussian is a federally registered
 trademark of Gaussian, Inc.
  
 This software contains proprietary and confidential information,
 including trade secrets, belonging to Gaussian, Inc.
  
 This software is provided under written license and may be
 used, copied, transmitted, or stored only in accord with that
 written license.
  
 The following legend is applicable only to US Government
 contracts under FAR:
  
                    RESTRICTED RIGHTS LEGEND
  
 Use, reproduction and disclosure by the US Government is
 subject to restrictions as set forth in subparagraphs (a)
 and (c) of the Commercial Computer Software - Restricted
 Rights clause in FAR 52.227-19.
  
 Gaussian, Inc.
 340 Quinnipiac St., Bldg. 40, Wallingford CT 06492
  
  
 ---------------------------------------------------------------
 Warning -- This program may not be used in any manner that
 competes with the business of Gaussian, Inc. or will provide
 assistance to any competitor of Gaussian, Inc.  The licensee
 of this program is prohibited from giving any competitor of
 Gaussian, Inc. access to this program.  By using this program,
 the user acknowledges that Gaussian, Inc. is engaged in the
 business of creating and licensing software in the field of
 computational chemistry and represents and warrants to the
 licensee that it is not a competitor of Gaussian, Inc. and that
 it will not use this program in any manner prohibited above.
 ---------------------------------------------------------------
  

 Cite this work as:
 Gaussian 16, Revision A.03,
 M. J. Frisch, G. W. Trucks, H. B. Schlegel, G. E. Scuseria, 
 M. A. Robb, J. R. Cheeseman, G. Scalmani, V. Barone, 
 G. A. Petersson, H. Nakatsuji, X. Li, M. Caricato, A. V. Marenich, 
 J. Bloino, B. G. Janesko, R. Gomperts, B. Mennucci, H. P. Hratchian, 
 J. V. Ortiz, A. F. Izmaylov, J. L. Sonnenberg, D. Williams-Young, 
 F. Ding, F. Lipparini, F. Egidi, J. Goings, B. Peng, A. Petrone, 
 T. Henderson, D. Ranasinghe, V. G. Zakrzewski, J. Gao, N. Rega, 
 G. Zheng, W. Liang, M. Hada, M. Ehara, K. Toyota, R. Fukuda, 
 J. Hasegawa, M. Ishida, T. Nakajima, Y. Honda, O. Kitao, H. Nakai, 
 T. Vreven, K. Throssell, J. A. Montgomery, Jr., J. E. Peralta, 
 F. Ogliaro, M. J. Bearpark, J. J. Heyd, E. N. Brothers, K. N. Kudin, 
 V. N. Staroverov, T. A. Keith, R. Kobayashi, J. Normand, 
 K. Raghavachari, A. P. Rendell, J. C. Burant, S. S. Iyengar, 
 J. Tomasi, M. Cossi, J. M. Millam, M. Klene, C. Adamo, R. Cammi, 
 J. W. Ochterski, R. L. Martin, K. Morokuma, O. Farkas, 
 J. B. Foresman, and D. J. Fox, Gaussian, Inc., Wallingford CT, 2016.
 
 ******************************************
 Gaussian 16:  ES64L-G16RevA.03 25-Dec-2016
                21-Dec-2022 
 ******************************************
 %RWF=myrwfile
 %NoSave
 %NProcShared=12
 Will use up to   12 processors via shared memory.
 %Chk=checkpoint.chk
 %mem=120MW
 ----------------------------------------------------------------
 # wB97XD Gen SCRF=(Solvent=TetraHydroFuran) Freq(Numer, Restart)
 ----------------------------------------------------------------
 1/35=1,38=10/6(3);
 7/8=1,25=1,44=-1/16;
 1/10=4,30=1,38=10/3;
 99//99;
 3/5=7,6=1,11=2,25=1,30=1,70=2205,71=1,72=20,74=-58,82=7/1,2,3;
 4/5=5,16=3,69=2/1;
 5/5=2,38=5,53=20,98=1/2;
 6/7=2,8=2,9=2,10=2,12=2,28=1/1;
 7/7=1/1,2,3,16;
 1/38=10/6(-5);
 7/8=1,25=1,44=-1/16;
 1/10=4,30=1,38=10/3;
 99//99;
 Restoring state from the checkpoint file "checkpoint.chk".
 ONIOM results not found on unit 2.
 Title:  TS Freq Analysis
 Route:  # wB97XD Gen SCRF=(Solvent=TetraHydroFuran) Freq(Numer)
 NDeriv=    183 NFrqRd=  0 NDerD0=      0 MskFDP=       0 MskDFD=       0 MskDF0=       0
 Re-enter D2Numr:  atom  24 IXYZ=2 step-down number 1
 Basis read from rwf:  (5D, 7F)
   749 basis functions,  1349 primitive gaussians,   800 cartesian basis functions
   174 alpha electrons      174 beta electrons
       nuclear repulsion energy      6625.1609959499 Hartrees.
 NAtoms=   61 NActive=   61 NUniq=   61 SFac= 1.00D+00 NAtFMM=   60 NAOKFM=T Big=T
 Integral buffers will be    131072 words long.
 Raffenetti 2 integral format.
 Two-electron integral symmetry is turned off.
 Nuclear repulsion after empirical dispersion term =     6625.0915585382 Hartrees.
 ------------------------------------------------------------------------------
 Polarizable Continuum Model (PCM)
 =================================
 Model                : PCM.
 Atomic radii         : UFF (Universal Force Field).
 Polarization charges : Total charges.
 Charge compensation  : None.
 Solution method      : On-the-fly selection.
 Cavity type          : Scaled VdW (van der Waals Surface) (Alpha=1.100).
 Cavity algorithm     : GePol (No added spheres)
                        Default sphere list used, NSphG=   61.
                        Lebedev-Laikov grids with approx.  5.0 points / Ang**2.
                        Smoothing algorithm: York/Karplus (Gamma=1.0000).
                        Polarization charges: spherical gaussians, with
                                              point-specific exponents (IZeta= 3).
                        Self-potential: point-specific (ISelfS= 7).
                        Self-field    : sphere-specific E.n sum rule (ISelfD= 2).
 1st derivatives      : Analytical E(r).r(x)/FMM algorithm (CHGder, D1EAlg=3).
                        Cavity 1st derivative terms included.
 Solvent              : TetraHydroFuran, Eps=   7.425700 Eps(inf)=   1.974025
 ------------------------------------------------------------------------------
 One-electron integrals computed using PRISM.
 NBasis=   749 RedAO= T EigKep=  2.25D-04  NBF=   749
 NBsUse=   749 1.00D-06 EigRej= -1.00D+00 NBFU=   749
 Initial guess from the checkpoint file:  "checkpoint.chk"
 B after Tr=     0.000000   -0.000000    0.000005
         Rot=    1.000000   -0.000001   -0.000000    0.000000 Ang=  -0.00 deg.
 Requested convergence on RMS density matrix=1.00D-08 within 128 cycles.
 Requested convergence on MAX density matrix=1.00D-06.
 Requested convergence on             energy=1.00D-06.
 No special actions if energy rises.
 Inv3:  Mode=1 IEnd=    68516523.
 Iteration    1 A*A^-1 deviation from unit magnitude is 3.55D-15 for    943.
 Iteration    1 A*A^-1 deviation from orthogonality  is 2.89D-15 for   3404   2053.
 Iteration    1 A^-1*A deviation from unit magnitude is 3.33D-15 for      1.
 Iteration    1 A^-1*A deviation from orthogonality  is 6.10D-14 for   4177   4127.
 Error on total polarization charges =  0.02602
 SCF Done:  E(RwB97XD) =  -6140.23096079     A.U. after    6 cycles
            NFock=  6  Conv=0.82D-08     -V/T= 2.0038

 **********************************************************************

            Population analysis using the SCF density.

 **********************************************************************

 Alpha  occ. eigenvalues -- -482.95274-235.72055 -89.04536 -89.04091 -62.53342
 Alpha  occ. eigenvalues --  -56.33893 -56.33892 -56.33891 -27.48762 -23.54725
 Alpha  occ. eigenvalues --  -23.54308 -23.54256 -19.35890 -19.35743 -19.35553
 Alpha  occ. eigenvalues --  -14.51752 -14.51205 -14.46906 -10.43295 -10.43207
 Alpha  occ. eigenvalues --  -10.43151 -10.37940 -10.37529 -10.37465 -10.36705
 Alpha  occ. eigenvalues --  -10.36398 -10.36273 -10.36251 -10.35967 -10.35873
 Alpha  occ. eigenvalues --  -10.35784 -10.35367 -10.35316 -10.34886 -10.34818
 Alpha  occ. eigenvalues --  -10.34720 -10.34665 -10.34129 -10.33604 -10.33514
 Alpha  occ. eigenvalues --  -10.33194 -10.33153 -10.33032 -10.32999 -10.32799
 Alpha  occ. eigenvalues --  -10.32783 -10.32738 -10.32598 -10.32517 -10.32473
 Alpha  occ. eigenvalues --   -8.70110  -8.09548  -8.09237  -6.51786  -6.51784
 Alpha  occ. eigenvalues --   -6.51780  -6.05014  -6.04697  -6.04622  -6.04302
 Alpha  occ. eigenvalues --   -6.03987  -6.03671  -3.28234  -2.62295  -2.62294
 Alpha  occ. eigenvalues --   -2.62290  -2.62289  -2.62288  -2.14137  -2.13168
 Alpha  occ. eigenvalues --   -2.13036  -1.24869  -1.24718  -1.24483  -1.09363
 Alpha  occ. eigenvalues --   -1.08623  -1.02442  -1.01583  -0.99216  -0.98078
 Alpha  occ. eigenvalues --   -0.95323  -0.94127  -0.92543  -0.91839  -0.90418
 Alpha  occ. eigenvalues --   -0.88960  -0.88354  -0.86888  -0.86611  -0.85994
 Alpha  occ. eigenvalues --   -0.83388  -0.79267  -0.76914  -0.76365  -0.76233
 Alpha  occ. eigenvalues --   -0.75576  -0.74968  -0.74415  -0.72791  -0.72229
 Alpha  occ. eigenvalues --   -0.71060  -0.70412  -0.69290  -0.67524  -0.66320
 Alpha  occ. eigenvalues --   -0.66129  -0.65994  -0.65700  -0.64995  -0.62868
 Alpha  occ. eigenvalues --   -0.62405  -0.61612  -0.60464  -0.59532  -0.59414
 Alpha  occ. eigenvalues --   -0.58656  -0.58200  -0.57943  -0.57838  -0.57743
 Alpha  occ. eigenvalues --   -0.57561  -0.57459  -0.57336  -0.56434  -0.56253
 Alpha  occ. eigenvalues --   -0.55610  -0.55173  -0.55018  -0.54838  -0.54368
 Alpha  occ. eigenvalues --   -0.53777  -0.53548  -0.53262  -0.53050  -0.52988
 Alpha  occ. eigenvalues --   -0.52770  -0.52510  -0.51950  -0.51926  -0.50948
 Alpha  occ. eigenvalues --   -0.49987  -0.49573  -0.48877  -0.48693  -0.48410
 Alpha  occ. eigenvalues --   -0.47953  -0.46349  -0.46238  -0.45913  -0.45812
 Alpha  occ. eigenvalues --   -0.44849  -0.44771  -0.44034  -0.43757  -0.42955
 Alpha  occ. eigenvalues --   -0.42359  -0.41312  -0.40788  -0.40347  -0.38925
 Alpha  occ. eigenvalues --   -0.38040  -0.37431  -0.35993  -0.35739  -0.35224
 Alpha  occ. eigenvalues --   -0.34727  -0.34487  -0.34275  -0.33381  -0.31674
 Alpha  occ. eigenvalues --   -0.30543  -0.29606  -0.29565  -0.29543
 Alpha virt. eigenvalues --   -0.02508  -0.00512  -0.00122   0.00236   0.00647
 Alpha virt. eigenvalues --    0.01212   0.01913   0.02828   0.03131   0.03463
 Alpha virt. eigenvalues --    0.03689   0.04094   0.04491   0.05581   0.05819
 Alpha virt. eigenvalues --    0.08208   0.08605   0.08738   0.08856   0.09358
 Alpha virt. eigenvalues --    0.10018   0.10630   0.12159   0.12467   0.13375
 Alpha virt. eigenvalues --    0.13504   0.13893   0.14352   0.14412   0.15196
 Alpha virt. eigenvalues --    0.15842   0.15997   0.16216   0.17147   0.17577
 Alpha virt. eigenvalues --    0.18172   0.18308   0.18730   0.18902   0.19422
 Alpha virt. eigenvalues --    0.19708   0.20135   0.20949   0.21041   0.21420
 Alpha virt. eigenvalues --    0.21650   0.21885   0.22410   0.23095   0.23245
 Alpha virt. eigenvalues --    0.23580   0.23700   0.24055   0.24594   0.25250
 Alpha virt. eigenvalues --    0.25882   0.26614   0.26870   0.27641   0.28156
 Alpha virt. eigenvalues --    0.28423   0.28819   0.29450   0.30430   0.31286
 Alpha virt. eigenvalues --    0.31866   0.32096   0.32295   0.32645   0.32921
 Alpha virt. eigenvalues --    0.33234   0.33413   0.34225   0.34821   0.34831
 Alpha virt. eigenvalues --    0.35322   0.35687   0.36117   0.36475   0.36864
 Alpha virt. eigenvalues --    0.37372   0.37543   0.37880   0.38575   0.38730
 Alpha virt. eigenvalues --    0.39147   0.39446   0.39808   0.40482   0.40928
 Alpha virt. eigenvalues --    0.41549   0.42054   0.42532   0.42692   0.43283
 Alpha virt. eigenvalues --    0.44392   0.44629   0.45784   0.46290   0.46588
 Alpha virt. eigenvalues --    0.47373   0.47498   0.47999   0.48202   0.48686
 Alpha virt. eigenvalues --    0.49250   0.49425   0.49710   0.50804   0.50998
 Alpha virt. eigenvalues --    0.51071   0.51622   0.52105   0.52223   0.52654
 Alpha virt. eigenvalues --    0.53006   0.53430   0.53699   0.53914   0.54335
 Alpha virt. eigenvalues --    0.54650   0.54794   0.55073   0.55416   0.55630
 Alpha virt. eigenvalues --    0.56451   0.56670   0.56968   0.57336   0.57968
 Alpha virt. eigenvalues --    0.58473   0.58775   0.59981   0.60265   0.60495
 Alpha virt. eigenvalues --    0.60709   0.60984   0.61106   0.61984   0.62670
 Alpha virt. eigenvalues --    0.63621   0.63810   0.64164   0.64593   0.64866
 Alpha virt. eigenvalues --    0.65164   0.65317   0.65927   0.66179   0.66456
 Alpha virt. eigenvalues --    0.66592   0.67163   0.67515   0.68570   0.69029
 Alpha virt. eigenvalues --    0.69121   0.69718   0.69869   0.70715   0.70891
 Alpha virt. eigenvalues --    0.71163   0.71428   0.71627   0.71745   0.71882
 Alpha virt. eigenvalues --    0.72190   0.72495   0.72864   0.73032   0.73209
 Alpha virt. eigenvalues --    0.73604   0.73949   0.74118   0.74498   0.75106
 Alpha virt. eigenvalues --    0.75415   0.75620   0.76065   0.76351   0.76811
 Alpha virt. eigenvalues --    0.77311   0.77498   0.77678   0.77772   0.78093
 Alpha virt. eigenvalues --    0.78188   0.79062   0.79462   0.79649   0.80220
 Alpha virt. eigenvalues --    0.80395   0.80655   0.81120   0.81378   0.82178
 Alpha virt. eigenvalues --    0.82229   0.82552   0.82729   0.83165   0.83486
 Alpha virt. eigenvalues --    0.83689   0.83765   0.84155   0.84360   0.84483
 Alpha virt. eigenvalues --    0.84613   0.85256   0.85656   0.85879   0.85972
 Alpha virt. eigenvalues --    0.86056   0.86474   0.87037   0.87340   0.87460
 Alpha virt. eigenvalues --    0.87917   0.88306   0.88744   0.89196   0.89260
 Alpha virt. eigenvalues --    0.89623   0.90062   0.90497   0.90792   0.91022
 Alpha virt. eigenvalues --    0.91246   0.92241   0.92356   0.92596   0.93381
 Alpha virt. eigenvalues --    0.93831   0.94101   0.94702   0.95287   0.95859
 Alpha virt. eigenvalues --    0.96580   0.97206   0.97389   0.98975   0.99719
 Alpha virt. eigenvalues --    0.99996   1.00923   1.01637   1.02535   1.02782
 Alpha virt. eigenvalues --    1.03161   1.04267   1.05067   1.05910   1.06497
 Alpha virt. eigenvalues --    1.07188   1.07703   1.09125   1.09360   1.10364
 Alpha virt. eigenvalues --    1.11019   1.11692   1.11981   1.12274   1.13056
 Alpha virt. eigenvalues --    1.13363   1.13460   1.14562   1.15282   1.15864
 Alpha virt. eigenvalues --    1.16354   1.16549   1.17676   1.19459   1.19892
 Alpha virt. eigenvalues --    1.20160   1.21352   1.22145   1.22667   1.23512
 Alpha virt. eigenvalues --    1.23944   1.24440   1.25049   1.25724   1.26910
 Alpha virt. eigenvalues --    1.27363   1.27958   1.28112   1.28899   1.29008
 Alpha virt. eigenvalues --    1.29510   1.29622   1.29981   1.30280   1.31132
 Alpha virt. eigenvalues --    1.31904   1.32440   1.32802   1.33065   1.34342
 Alpha virt. eigenvalues --    1.34837   1.35096   1.35687   1.35925   1.36019
 Alpha virt. eigenvalues --    1.36432   1.36570   1.37066   1.37270   1.37679
 Alpha virt. eigenvalues --    1.38601   1.39207   1.39459   1.40422   1.41316
 Alpha virt. eigenvalues --    1.42247   1.44168   1.45973   1.47448   1.48014
 Alpha virt. eigenvalues --    1.48784   1.49834   1.51049   1.52912   1.54597
 Alpha virt. eigenvalues --    1.56330   1.56846   1.57911   1.58459   1.60193
 Alpha virt. eigenvalues --    1.60985   1.61519   1.62727   1.63578   1.64718
 Alpha virt. eigenvalues --    1.64817   1.65979   1.67769   1.68391   1.68787
 Alpha virt. eigenvalues --    1.69301   1.70027   1.70307   1.70855   1.71199
 Alpha virt. eigenvalues --    1.72935   1.73120   1.73303   1.73915   1.74794
 Alpha virt. eigenvalues --    1.75120   1.75663   1.76438   1.76726   1.76739
 Alpha virt. eigenvalues --    1.77163   1.77674   1.78138   1.78373   1.79132
 Alpha virt. eigenvalues --    1.79408   1.79822   1.80176   1.80363   1.80581
 Alpha virt. eigenvalues --    1.81026   1.81453   1.81719   1.82466   1.82610
 Alpha virt. eigenvalues --    1.83661   1.83911   1.84133   1.84653   1.85653
 Alpha virt. eigenvalues --    1.86012   1.86325   1.86723   1.87279   1.87629
 Alpha virt. eigenvalues --    1.88025   1.88586   1.88806   1.89012   1.89531
 Alpha virt. eigenvalues --    1.90074   1.90682   1.91018   1.91811   1.92262
 Alpha virt. eigenvalues --    1.92635   1.93485   1.93760   1.94787   1.95021
 Alpha virt. eigenvalues --    1.96310   1.97780   1.98187   1.99060   1.99675
 Alpha virt. eigenvalues --    2.00177   2.00465   2.01060   2.01630   2.01960
 Alpha virt. eigenvalues --    2.02511   2.02711   2.02894   2.03643   2.04143
 Alpha virt. eigenvalues --    2.04886   2.05287   2.06258   2.06397   2.06601
 Alpha virt. eigenvalues --    2.06729   2.07428   2.08574   2.08903   2.09918
 Alpha virt. eigenvalues --    2.10526   2.10955   2.11846   2.12123   2.12314
 Alpha virt. eigenvalues --    2.14502   2.16463   2.17310   2.17837   2.18354
 Alpha virt. eigenvalues --    2.18565   2.19156   2.19436   2.21112   2.22082
 Alpha virt. eigenvalues --    2.22458   2.23063   2.23476   2.23667   2.24743
 Alpha virt. eigenvalues --    2.26497   2.26832   2.29256   2.29642   2.30460
 Alpha virt. eigenvalues --    2.30919   2.31102   2.31517   2.31808   2.32464
 Alpha virt. eigenvalues --    2.33623   2.34270   2.35114   2.35529   2.36171
 Alpha virt. eigenvalues --    2.36722   2.37118   2.37539   2.38239   2.38470
 Alpha virt. eigenvalues --    2.38556   2.39065   2.39308   2.39549   2.40286
 Alpha virt. eigenvalues --    2.40840   2.41738   2.42259   2.43573   2.45238
 Alpha virt. eigenvalues --    2.46178   2.46944   2.48621   2.49075   2.49374
 Alpha virt. eigenvalues --    2.52474   2.53431   2.54798   2.56183   2.57967
 Alpha virt. eigenvalues --    2.59190   2.59300   2.60146   2.62457   2.64982
 Alpha virt. eigenvalues --    2.66564   2.66799   2.67533   2.68003   2.68222
 Alpha virt. eigenvalues --    2.68339   2.68505   2.68570   2.68770   2.68858
 Alpha virt. eigenvalues --    2.69022   2.69352   2.69485   2.69550   2.70847
 Alpha virt. eigenvalues --    2.72001   2.72582   2.75860   2.76336   2.77824
 Alpha virt. eigenvalues --    2.78478   2.80060   2.80282   2.80998   2.82227
 Alpha virt. eigenvalues --    2.82595   2.82712   2.83709   2.84363   2.85058
 Alpha virt. eigenvalues --    2.86375   2.86876   2.88110   2.88862   2.90964
 Alpha virt. eigenvalues --    2.92467   2.92644   2.95540   2.98088   2.98703
 Alpha virt. eigenvalues --    2.99088   3.01278   3.03005   3.03906   3.04159
 Alpha virt. eigenvalues --    3.04754   3.07141   3.08104   3.08633   3.10220
 Alpha virt. eigenvalues --    3.10518   3.14345   3.15655   3.15915   3.19031
 Alpha virt. eigenvalues --    3.19932   3.21073   3.22029   3.22622   3.22733
 Alpha virt. eigenvalues --    3.23226   3.23872   3.28566   3.28992   3.31229
 Alpha virt. eigenvalues --    3.36824   3.38739   3.39176   3.42249   3.44365
 Alpha virt. eigenvalues --    3.45736   3.49818   3.51895   3.54034   3.57072
 Alpha virt. eigenvalues --    3.58166   3.59552   3.61042   3.61543   3.61809
 Alpha virt. eigenvalues --    3.62138   3.64034   3.69375   3.70296   3.74854
 Alpha virt. eigenvalues --    3.75189   3.76146   3.76750   3.78037   3.78850
 Alpha virt. eigenvalues --    3.80302   3.90267   3.93519   4.02176   4.05725
 Electronic spatial extent (au):  <R**2>=          23960.2223
 Charge=             -0.0000 electrons
 Dipole moment (field-independent basis, Debye):
    X=             28.7834    Y=              8.4247    Z=             -0.3505  Tot=             29.9930
 Quadrupole moment (field-independent basis, Debye-Ang):
   XX=           -404.0793   YY=           -239.0159   ZZ=           -255.3067
   XY=            -38.8075   XZ=             16.4778   YZ=             21.8758
 Traceless Quadrupole moment (field-independent basis, Debye-Ang):
   XX=           -104.6120   YY=             60.4515   ZZ=             44.1606
   XY=            -38.8075   XZ=             16.4778   YZ=             21.8758
 Octapole moment (field-independent basis, Debye-Ang**2):
  XXX=            884.0167  YYY=             14.7242  ZZZ=             17.1946  XYY=             95.4345
  XXY=            342.5124  XXZ=           -130.6169  XZZ=              2.7220  YZZ=             -6.1938
  YYZ=              5.8612  XYZ=              4.4440
 Hexadecapole moment (field-independent basis, Debye-Ang**3):
 XXXX=         -22198.7157 YYYY=          -7243.6791 ZZZZ=          -5638.4276 XXXY=          -1354.4804
 XXXZ=            351.2075 YYYX=             57.4370 YYYZ=            194.4237 ZZZX=            176.5159
 ZZZY=            138.3539 XXYY=          -4374.0058 XXZZ=          -3842.4881 YYZZ=          -1954.6175
 XXYZ=            211.0838 YYXZ=            -24.1862 ZZXY=           -166.0463
 N-N= 6.625091558538D+03 E-N=-2.778698178408D+04  KE= 6.117233291488D+03
 D1PCM: PCM CHGder 1st derivatives, ID1Alg=3 FixD1E=F DoIter=F DoCFld=F I1PDM=0.
 Calling FoFJK, ICntrl=      2127 FMM=T ISym2X=0 I1Cent= 0 IOpClX= 0 NMat=1 NMatS=1 NMatT=0.
 -------------------------------------------------------------------
 Center     Atomic                   Forces (Hartrees/Bohr)
 Number     Number              X              Y              Z
 -------------------------------------------------------------------
      1       25          -0.000000059   -0.000003481   -0.000018900
      2        6           0.000014859    0.000001588    0.000011096
      3        8          -0.000013052   -0.000004038   -0.000003109
      4        6          -0.000003424    0.000002169   -0.000003822
      5        8           0.000002093   -0.000000254   -0.000000207
      6        6           0.000001547   -0.000003631   -0.000004357
      7        7           0.000007348    0.000002681    0.000002846
      8        6           0.000000904   -0.000000949    0.000002695
      9        6          -0.000002693   -0.000000496   -0.000005736
     10        6           0.000001548   -0.000003104    0.000005222
     11        1           0.000001999   -0.000001666    0.000001460
     12        1          -0.000000329   -0.000000324    0.000004360
     13        7          -0.000005397    0.000009852    0.000009258
     14        6          -0.000000178    0.000001745   -0.000002427
     15        6          -0.000006383   -0.000008314   -0.000001962
     16        6           0.000002755    0.000004351    0.000003771
     17        6           0.000000451    0.000003450    0.000002080
     18        6          -0.000012898    0.000029248   -0.000006661
     19        1          -0.000001078    0.000002167    0.000001092
     20        1           0.000012482   -0.000008714    0.000011328
     21        7           0.000008791    0.000008874   -0.000007517
     22        6          -0.000117098    0.000253308    0.000475173
     23        6           0.000002954    0.000005640   -0.000006717
     24        1           0.000127254   -0.000284429   -0.000492143
     25        6          -0.000004052    0.000002688    0.000000839
     26        1          -0.000001868   -0.000001759    0.000000075
     27        6          -0.000016307    0.000012740    0.000016701
     28        1           0.000001370   -0.000000720   -0.000002016
     29        1           0.000000188    0.000002801   -0.000000875
     30        8          -0.000001100   -0.000003593    0.000000334
     31       16           0.000000320   -0.000003223   -0.000001371
     32       16           0.000000416   -0.000001058    0.000000737
     33        6          -0.000000635   -0.000000032    0.000004512
     34        6          -0.000000056   -0.000001993    0.000001345
     35        6          -0.000000793   -0.000005634    0.000005614
     36        6          -0.000000683   -0.000002615    0.000002015
     37        6          -0.000001175   -0.000003236    0.000002153
     38        6          -0.000001824   -0.000001644    0.000001631
     39        6           0.000000285    0.000004211   -0.000002718
     40        1          -0.000000742   -0.000002716    0.000002609
     41        1          -0.000000880   -0.000003843    0.000003163
     42        1          -0.000000623   -0.000003106    0.000001992
     43        6           0.000002096   -0.000005077    0.000000102
     44        6           0.000000154   -0.000001797   -0.000001472
     45        6          -0.000000057   -0.000001813   -0.000000558
     46        6          -0.000001436   -0.000001349   -0.000001223
     47        6           0.000001591   -0.000000049   -0.000004467
     48        6           0.000000723    0.000001567   -0.000000786
     49        1           0.000000007   -0.000001899   -0.000001478
     50        1           0.000000660   -0.000001406   -0.000003250
     51        1           0.000000832   -0.000000471   -0.000002650
     52        6          -0.000000557    0.000006947   -0.000007182
     53        1           0.000001262   -0.000001735   -0.000001324
     54        6           0.000002113    0.000001631   -0.000004682
     55        1          -0.000000744   -0.000001124    0.000000357
     56        1          -0.000000633   -0.000001409    0.000001007
     57        6          -0.000002143    0.000001179    0.000003682
     58        6           0.000005434    0.000003580   -0.000000403
     59        1          -0.000000768    0.000001822    0.000002979
     60        1           0.000000121    0.000002844    0.000000958
     61       35          -0.000002894    0.000005619    0.000006826
 -------------------------------------------------------------------
 Cartesian Forces:  Max     0.000492143 RMS     0.000059490
 NDeriv=    183 NFrqRd=  0 NDerD0=      0 MskFDP=       0 MskDFD=       0 MskDF0=       0
 Re-enter D2Numr:  atom  24 IXYZ=3 step-up   number 1
 Basis read from rwf:  (5D, 7F)
   749 basis functions,  1349 primitive gaussians,   800 cartesian basis functions
   174 alpha electrons      174 beta electrons
       nuclear repulsion energy      6625.1723900465 Hartrees.
 NAtoms=   61 NActive=   61 NUniq=   61 SFac= 1.00D+00 NAtFMM=   60 NAOKFM=T Big=T
 Integral buffers will be    131072 words long.
 Raffenetti 2 integral format.
 Two-electron integral symmetry is turned off.
 Nuclear repulsion after empirical dispersion term =     6625.1029521424 Hartrees.
 ------------------------------------------------------------------------------
 Polarizable Continuum Model (PCM)
 =================================
 Model                : PCM.
 Atomic radii         : UFF (Universal Force Field).
 Polarization charges : Total charges.
 Charge compensation  : None.
 Solution method      : On-the-fly selection.
 Cavity type          : Scaled VdW (van der Waals Surface) (Alpha=1.100).
 Cavity algorithm     : GePol (No added spheres)
                        Default sphere list used, NSphG=   61.
                        Lebedev-Laikov grids with approx.  5.0 points / Ang**2.
                        Smoothing algorithm: York/Karplus (Gamma=1.0000).
                        Polarization charges: spherical gaussians, with
                                              point-specific exponents (IZeta= 3).
                        Self-potential: point-specific (ISelfS= 7).
                        Self-field    : sphere-specific E.n sum rule (ISelfD= 2).
 1st derivatives      : Analytical E(r).r(x)/FMM algorithm (CHGder, D1EAlg=3).
                        Cavity 1st derivative terms included.
 Solvent              : TetraHydroFuran, Eps=   7.425700 Eps(inf)=   1.974025
 ------------------------------------------------------------------------------
 One-electron integrals computed using PRISM.
 NBasis=   749 RedAO= T EigKep=  2.25D-04  NBF=   749
 NBsUse=   749 1.00D-06 EigRej= -1.00D+00 NBFU=   749
 Initial guess from the checkpoint file:  "checkpoint.chk"
 B after Tr=    -0.000000    0.000000   -0.000005
         Rot=    1.000000    0.000001    0.000000    0.000000 Ang=   0.00 deg.
 Requested convergence on RMS density matrix=1.00D-08 within 128 cycles.
 Requested convergence on MAX density matrix=1.00D-06.
 Requested convergence on             energy=1.00D-06.
 No special actions if energy rises.
 Inv3:  Mode=1 IEnd=    68516523.
 Iteration    1 A*A^-1 deviation from unit magnitude is 3.33D-15 for   4444.
 Iteration    1 A*A^-1 deviation from orthogonality  is 2.88D-15 for   3322   2942.
 Iteration    1 A^-1*A deviation from unit magnitude is 3.22D-15 for   3830.
 Iteration    1 A^-1*A deviation from orthogonality  is 6.36D-14 for   4142   4127.
 Error on total polarization charges =  0.02602
 SCF Done:  E(RwB97XD) =  -6140.23096079     A.U. after    6 cycles
            NFock=  6  Conv=0.83D-08     -V/T= 2.0038

 **********************************************************************

            Population analysis using the SCF density.

 **********************************************************************

 Alpha  occ. eigenvalues -- -482.95274-235.72055 -89.04536 -89.04091 -62.53342
 Alpha  occ. eigenvalues --  -56.33893 -56.33892 -56.33891 -27.48762 -23.54725
 Alpha  occ. eigenvalues --  -23.54308 -23.54256 -19.35890 -19.35743 -19.35553
 Alpha  occ. eigenvalues --  -14.51751 -14.51205 -14.46906 -10.43294 -10.43206
 Alpha  occ. eigenvalues --  -10.43151 -10.37940 -10.37528 -10.37465 -10.36705
 Alpha  occ. eigenvalues --  -10.36397 -10.36273 -10.36251 -10.35967 -10.35873
 Alpha  occ. eigenvalues --  -10.35784 -10.35366 -10.35316 -10.34886 -10.34818
 Alpha  occ. eigenvalues --  -10.34720 -10.34665 -10.34114 -10.33604 -10.33514
 Alpha  occ. eigenvalues --  -10.33194 -10.33153 -10.33032 -10.32999 -10.32798
 Alpha  occ. eigenvalues --  -10.32783 -10.32738 -10.32598 -10.32517 -10.32473
 Alpha  occ. eigenvalues --   -8.70110  -8.09548  -8.09237  -6.51786  -6.51784
 Alpha  occ. eigenvalues --   -6.51780  -6.05014  -6.04697  -6.04622  -6.04302
 Alpha  occ. eigenvalues --   -6.03987  -6.03671  -3.28234  -2.62295  -2.62294
 Alpha  occ. eigenvalues --   -2.62290  -2.62289  -2.62288  -2.14136  -2.13168
 Alpha  occ. eigenvalues --   -2.13036  -1.24869  -1.24718  -1.24483  -1.09363
 Alpha  occ. eigenvalues --   -1.08622  -1.02442  -1.01582  -0.99216  -0.98078
 Alpha  occ. eigenvalues --   -0.95323  -0.94128  -0.92543  -0.91841  -0.90419
 Alpha  occ. eigenvalues --   -0.88960  -0.88354  -0.86888  -0.86611  -0.85994
 Alpha  occ. eigenvalues --   -0.83388  -0.79267  -0.76916  -0.76365  -0.76236
 Alpha  occ. eigenvalues --   -0.75576  -0.74968  -0.74415  -0.72791  -0.72229
 Alpha  occ. eigenvalues --   -0.71062  -0.70412  -0.69290  -0.67524  -0.66320
 Alpha  occ. eigenvalues --   -0.66129  -0.65994  -0.65701  -0.64996  -0.62868
 Alpha  occ. eigenvalues --   -0.62405  -0.61612  -0.60465  -0.59532  -0.59414
 Alpha  occ. eigenvalues --   -0.58657  -0.58202  -0.57946  -0.57842  -0.57743
 Alpha  occ. eigenvalues --   -0.57561  -0.57459  -0.57337  -0.56434  -0.56253
 Alpha  occ. eigenvalues --   -0.55610  -0.55179  -0.55018  -0.54838  -0.54367
 Alpha  occ. eigenvalues --   -0.53777  -0.53550  -0.53262  -0.53050  -0.52988
 Alpha  occ. eigenvalues --   -0.52770  -0.52510  -0.51951  -0.51926  -0.50948
 Alpha  occ. eigenvalues --   -0.49990  -0.49573  -0.48879  -0.48693  -0.48410
 Alpha  occ. eigenvalues --   -0.47955  -0.46349  -0.46238  -0.45914  -0.45812
 Alpha  occ. eigenvalues --   -0.44849  -0.44771  -0.44034  -0.43757  -0.42954
 Alpha  occ. eigenvalues --   -0.42359  -0.41312  -0.40788  -0.40347  -0.38925
 Alpha  occ. eigenvalues --   -0.38039  -0.37431  -0.35993  -0.35739  -0.35224
 Alpha  occ. eigenvalues --   -0.34727  -0.34487  -0.34274  -0.33381  -0.31674
 Alpha  occ. eigenvalues --   -0.30543  -0.29606  -0.29565  -0.29543
 Alpha virt. eigenvalues --   -0.02508  -0.00512  -0.00122   0.00236   0.00647
 Alpha virt. eigenvalues --    0.01212   0.01913   0.02828   0.03132   0.03463
 Alpha virt. eigenvalues --    0.03689   0.04094   0.04491   0.05581   0.05819
 Alpha virt. eigenvalues --    0.08208   0.08605   0.08738   0.08856   0.09358
 Alpha virt. eigenvalues --    0.10019   0.10630   0.12160   0.12467   0.13375
 Alpha virt. eigenvalues --    0.13504   0.13894   0.14356   0.14412   0.15200
 Alpha virt. eigenvalues --    0.15845   0.15998   0.16216   0.17147   0.17577
 Alpha virt. eigenvalues --    0.18171   0.18311   0.18731   0.18902   0.19422
 Alpha virt. eigenvalues --    0.19708   0.20135   0.20949   0.21043   0.21421
 Alpha virt. eigenvalues --    0.21651   0.21887   0.22413   0.23095   0.23245
 Alpha virt. eigenvalues --    0.23581   0.23702   0.24058   0.24594   0.25251
 Alpha virt. eigenvalues --    0.25882   0.26614   0.26870   0.27641   0.28156
 Alpha virt. eigenvalues --    0.28423   0.28819   0.29450   0.30432   0.31286
 Alpha virt. eigenvalues --    0.31867   0.32096   0.32295   0.32645   0.32921
 Alpha virt. eigenvalues --    0.33234   0.33413   0.34226   0.34821   0.34831
 Alpha virt. eigenvalues --    0.35323   0.35687   0.36117   0.36476   0.36864
 Alpha virt. eigenvalues --    0.37373   0.37543   0.37880   0.38576   0.38730
 Alpha virt. eigenvalues --    0.39147   0.39446   0.39808   0.40483   0.40928
 Alpha virt. eigenvalues --    0.41549   0.42054   0.42532   0.42692   0.43283
 Alpha virt. eigenvalues --    0.44392   0.44629   0.45784   0.46290   0.46588
 Alpha virt. eigenvalues --    0.47373   0.47499   0.48000   0.48202   0.48686
 Alpha virt. eigenvalues --    0.49251   0.49425   0.49710   0.50804   0.50998
 Alpha virt. eigenvalues --    0.51073   0.51622   0.52106   0.52224   0.52655
 Alpha virt. eigenvalues --    0.53007   0.53431   0.53700   0.53915   0.54335
 Alpha virt. eigenvalues --    0.54650   0.54795   0.55074   0.55417   0.55631
 Alpha virt. eigenvalues --    0.56452   0.56671   0.56970   0.57336   0.57969
 Alpha virt. eigenvalues --    0.58474   0.58775   0.59982   0.60265   0.60496
 Alpha virt. eigenvalues --    0.60709   0.60985   0.61107   0.61984   0.62671
 Alpha virt. eigenvalues --    0.63621   0.63811   0.64164   0.64593   0.64866
 Alpha virt. eigenvalues --    0.65164   0.65317   0.65927   0.66179   0.66457
 Alpha virt. eigenvalues --    0.66592   0.67163   0.67515   0.68572   0.69033
 Alpha virt. eigenvalues --    0.69123   0.69719   0.69869   0.70715   0.70891
 Alpha virt. eigenvalues --    0.71163   0.71431   0.71635   0.71745   0.71883
 Alpha virt. eigenvalues --    0.72190   0.72496   0.72867   0.73034   0.73209
 Alpha virt. eigenvalues --    0.73616   0.73949   0.74121   0.74501   0.75107
 Alpha virt. eigenvalues --    0.75424   0.75620   0.76066   0.76351   0.76811
 Alpha virt. eigenvalues --    0.77311   0.77500   0.77679   0.77772   0.78096
 Alpha virt. eigenvalues --    0.78189   0.79063   0.79462   0.79649   0.80219
 Alpha virt. eigenvalues --    0.80396   0.80656   0.81120   0.81378   0.82178
 Alpha virt. eigenvalues --    0.82229   0.82553   0.82729   0.83166   0.83486
 Alpha virt. eigenvalues --    0.83690   0.83765   0.84155   0.84361   0.84484
 Alpha virt. eigenvalues --    0.84613   0.85256   0.85657   0.85879   0.85972
 Alpha virt. eigenvalues --    0.86056   0.86475   0.87038   0.87340   0.87460
 Alpha virt. eigenvalues --    0.87917   0.88306   0.88744   0.89197   0.89260
 Alpha virt. eigenvalues --    0.89623   0.90063   0.90497   0.90792   0.91022
 Alpha virt. eigenvalues --    0.91247   0.92241   0.92356   0.92596   0.93382
 Alpha virt. eigenvalues --    0.93831   0.94100   0.94703   0.95288   0.95859
 Alpha virt. eigenvalues --    0.96580   0.97207   0.97389   0.98977   0.99719
 Alpha virt. eigenvalues --    0.99996   1.00923   1.01637   1.02535   1.02782
 Alpha virt. eigenvalues --    1.03161   1.04268   1.05067   1.05911   1.06497
 Alpha virt. eigenvalues --    1.07188   1.07705   1.09126   1.09360   1.10365
 Alpha virt. eigenvalues --    1.11020   1.11692   1.11981   1.12274   1.13056
 Alpha virt. eigenvalues --    1.13364   1.13461   1.14562   1.15281   1.15864
 Alpha virt. eigenvalues --    1.16354   1.16547   1.17676   1.19462   1.19893
 Alpha virt. eigenvalues --    1.20158   1.21353   1.22145   1.22670   1.23513
 Alpha virt. eigenvalues --    1.23945   1.24440   1.25047   1.25723   1.26910
 Alpha virt. eigenvalues --    1.27367   1.27959   1.28112   1.28902   1.29006
 Alpha virt. eigenvalues --    1.29510   1.29625   1.29979   1.30280   1.31130
 Alpha virt. eigenvalues --    1.31904   1.32440   1.32802   1.33066   1.34343
 Alpha virt. eigenvalues --    1.34836   1.35095   1.35687   1.35925   1.36017
 Alpha virt. eigenvalues --    1.36432   1.36568   1.37066   1.37270   1.37679
 Alpha virt. eigenvalues --    1.38600   1.39206   1.39459   1.40422   1.41316
 Alpha virt. eigenvalues --    1.42247   1.44176   1.45980   1.47449   1.48015
 Alpha virt. eigenvalues --    1.48783   1.49835   1.51048   1.52914   1.54597
 Alpha virt. eigenvalues --    1.56330   1.56845   1.57911   1.58460   1.60190
 Alpha virt. eigenvalues --    1.60985   1.61521   1.62728   1.63578   1.64718
 Alpha virt. eigenvalues --    1.64817   1.65979   1.67768   1.68391   1.68788
 Alpha virt. eigenvalues --    1.69303   1.70029   1.70307   1.70859   1.71199
 Alpha virt. eigenvalues --    1.72936   1.73120   1.73303   1.73915   1.74794
 Alpha virt. eigenvalues --    1.75124   1.75664   1.76438   1.76726   1.76738
 Alpha virt. eigenvalues --    1.77163   1.77674   1.78140   1.78376   1.79132
 Alpha virt. eigenvalues --    1.79407   1.79821   1.80176   1.80364   1.80586
 Alpha virt. eigenvalues --    1.81028   1.81455   1.81735   1.82467   1.82610
 Alpha virt. eigenvalues --    1.83685   1.83913   1.84135   1.84654   1.85654
 Alpha virt. eigenvalues --    1.86011   1.86326   1.86722   1.87281   1.87629
 Alpha virt. eigenvalues --    1.88026   1.88587   1.88809   1.89013   1.89531
 Alpha virt. eigenvalues --    1.90075   1.90683   1.91022   1.91812   1.92264
 Alpha virt. eigenvalues --    1.92636   1.93486   1.93762   1.94787   1.95022
 Alpha virt. eigenvalues --    1.96315   1.97784   1.98189   1.99062   1.99679
 Alpha virt. eigenvalues --    2.00180   2.00472   2.01061   2.01633   2.01965
 Alpha virt. eigenvalues --    2.02512   2.02724   2.02901   2.03656   2.04146
 Alpha virt. eigenvalues --    2.04894   2.05296   2.06259   2.06407   2.06606
 Alpha virt. eigenvalues --    2.06730   2.07433   2.08574   2.08906   2.09922
 Alpha virt. eigenvalues --    2.10528   2.10960   2.11849   2.12123   2.12315
 Alpha virt. eigenvalues --    2.14528   2.16471   2.17312   2.17839   2.18354
 Alpha virt. eigenvalues --    2.18565   2.19163   2.19438   2.21128   2.22083
 Alpha virt. eigenvalues --    2.22458   2.23063   2.23473   2.23664   2.24743
 Alpha virt. eigenvalues --    2.26506   2.26832   2.29258   2.29644   2.30471
 Alpha virt. eigenvalues --    2.30919   2.31103   2.31519   2.31809   2.32465
 Alpha virt. eigenvalues --    2.33629   2.34271   2.35114   2.35529   2.36177
 Alpha virt. eigenvalues --    2.36722   2.37118   2.37539   2.38244   2.38471
 Alpha virt. eigenvalues --    2.38556   2.39066   2.39314   2.39552   2.40285
 Alpha virt. eigenvalues --    2.40844   2.41744   2.42260   2.43577   2.45253
 Alpha virt. eigenvalues --    2.46179   2.46946   2.48628   2.49087   2.49374
 Alpha virt. eigenvalues --    2.52479   2.53432   2.54806   2.56186   2.57972
 Alpha virt. eigenvalues --    2.59190   2.59301   2.60147   2.62458   2.64988
 Alpha virt. eigenvalues --    2.66566   2.66800   2.67533   2.68004   2.68223
 Alpha virt. eigenvalues --    2.68339   2.68505   2.68570   2.68771   2.68859
 Alpha virt. eigenvalues --    2.69022   2.69353   2.69486   2.69550   2.70847
 Alpha virt. eigenvalues --    2.72014   2.72585   2.75860   2.76337   2.77829
 Alpha virt. eigenvalues --    2.78620   2.80061   2.80285   2.81003   2.82230
 Alpha virt. eigenvalues --    2.82595   2.82714   2.83710   2.84365   2.85059
 Alpha virt. eigenvalues --    2.86375   2.86876   2.88123   2.88865   2.90965
 Alpha virt. eigenvalues --    2.92470   2.92644   2.95540   2.98101   2.98708
 Alpha virt. eigenvalues --    2.99096   3.01279   3.03005   3.03911   3.04163
 Alpha virt. eigenvalues --    3.04758   3.07162   3.08106   3.08635   3.10229
 Alpha virt. eigenvalues --    3.10518   3.14348   3.15656   3.15915   3.19097
 Alpha virt. eigenvalues --    3.19940   3.21074   3.22029   3.22625   3.22734
 Alpha virt. eigenvalues --    3.23227   3.23873   3.28566   3.28994   3.31229
 Alpha virt. eigenvalues --    3.36833   3.38741   3.39183   3.42249   3.44365
 Alpha virt. eigenvalues --    3.45736   3.49818   3.51895   3.54034   3.57075
 Alpha virt. eigenvalues --    3.58168   3.59552   3.61042   3.61543   3.61809
 Alpha virt. eigenvalues --    3.62138   3.64034   3.69403   3.70298   3.74854
 Alpha virt. eigenvalues --    3.75189   3.76146   3.76750   3.78037   3.78850
 Alpha virt. eigenvalues --    3.80302   3.90267   3.93520   4.02176   4.05725
 Electronic spatial extent (au):  <R**2>=          23960.1784
 Charge=             -0.0000 electrons
 Dipole moment (field-independent basis, Debye):
    X=             28.7832    Y=              8.4253    Z=             -0.3509  Tot=             29.9930
 Quadrupole moment (field-independent basis, Debye-Ang):
   XX=           -404.0793   YY=           -239.0105   ZZ=           -255.3115
   XY=            -38.8084   XZ=             16.4773   YZ=             21.8741
 Traceless Quadrupole moment (field-independent basis, Debye-Ang):
   XX=           -104.6122   YY=             60.4566   ZZ=             44.1556
   XY=            -38.8084   XZ=             16.4773   YZ=             21.8741
 Octapole moment (field-independent basis, Debye-Ang**2):
  XXX=            884.0143  YYY=             14.7661  ZZZ=             17.1778  XYY=             95.4301
  XXY=            342.5159  XXZ=           -130.6100  XZZ=              2.7230  YZZ=             -6.2133
  YYZ=              5.8620  XYZ=              4.4422
 Hexadecapole moment (field-independent basis, Debye-Ang**3):
 XXXX=         -22198.7496 YYYY=          -7243.4122 ZZZZ=          -5638.4723 XXXY=          -1354.4873
 XXXZ=            351.2006 YYYX=             57.4170 YYYZ=            194.4789 ZZZX=            176.5204
 ZZZY=            138.2729 XXYY=          -4373.9928 XXZZ=          -3842.4707 YYZZ=          -1954.6773
 XXYZ=            211.1068 YYXZ=            -24.1928 ZZXY=           -166.0423
 N-N= 6.625102952142D+03 E-N=-2.778700590679D+04  KE= 6.117235462992D+03
 D1PCM: PCM CHGder 1st derivatives, ID1Alg=3 FixD1E=F DoIter=F DoCFld=F I1PDM=0.
 Calling FoFJK, ICntrl=      2127 FMM=T ISym2X=0 I1Cent= 0 IOpClX= 0 NMat=1 NMatS=1 NMatT=0.
 -------------------------------------------------------------------
 Center     Atomic                   Forces (Hartrees/Bohr)
 Number     Number              X              Y              Z
 -------------------------------------------------------------------
      1       25           0.000001025   -0.000002616   -0.000019094
      2        6           0.000015606    0.000000312    0.000011141
      3        8          -0.000013490   -0.000003103   -0.000003101
      4        6          -0.000002879    0.000002313   -0.000003240
      5        8           0.000001565   -0.000000447   -0.000000643
      6        6           0.000001140   -0.000003988   -0.000003576
      7        7           0.000007469    0.000002285    0.000002831
      8        6           0.000000883   -0.000000991    0.000002731
      9        6          -0.000002661   -0.000000505   -0.000005743
     10        6           0.000001254   -0.000002910    0.000005276
     11        1           0.000001986   -0.000001703    0.000001475
     12        1          -0.000000319   -0.000000363    0.000004368
     13        7          -0.000005265    0.000010005    0.000009299
     14        6          -0.000000242    0.000001877   -0.000002564
     15        6          -0.000006315   -0.000008360   -0.000001921
     16        6           0.000002646    0.000004176    0.000003830
     17        6           0.000000471    0.000003509    0.000002098
     18        6          -0.000012902    0.000029222   -0.000006675
     19        1          -0.000001014    0.000002084    0.000001178
     20        1           0.000012475   -0.000008716    0.000011316
     21        7          -0.000002034   -0.000008306   -0.000005818
     22        6           0.000123094   -0.000246587   -0.000483991
     23        6          -0.000003682    0.000000037   -0.000002393
     24        1          -0.000128123    0.000256260    0.000489381
     25        6          -0.000003881    0.000002929    0.000000719
     26        1          -0.000001819   -0.000001773    0.000000045
     27        6           0.000016557   -0.000014329   -0.000018279
     28        1           0.000001944    0.000006566   -0.000004362
     29        1           0.000000176    0.000002812   -0.000000874
     30        8          -0.000000802   -0.000003425   -0.000000143
     31       16           0.000000296   -0.000002926   -0.000001486
     32       16           0.000000457   -0.000001083    0.000000714
     33        6          -0.000000660    0.000000034    0.000004493
     34        6          -0.000000063   -0.000002018    0.000001353
     35        6          -0.000000782   -0.000005630    0.000005613
     36        6          -0.000000679   -0.000002625    0.000002009
     37        6          -0.000001177   -0.000003246    0.000002147
     38        6          -0.000001797   -0.000001648    0.000001631
     39        6           0.000000271    0.000004203   -0.000002679
     40        1          -0.000000748   -0.000002719    0.000002607
     41        1          -0.000000879   -0.000003848    0.000003161
     42        1          -0.000000623   -0.000003105    0.000001993
     43        6           0.000002329   -0.000004946   -0.000000010
     44        6           0.000000078   -0.000001849   -0.000001398
     45        6           0.000000013   -0.000001784   -0.000000573
     46        6          -0.000001345   -0.000001352   -0.000001176
     47        6           0.000001599   -0.000000207   -0.000004668
     48        6          -0.000000039    0.000001468   -0.000000602
     49        1           0.000000025   -0.000001906   -0.000001502
     50        1           0.000000699   -0.000001406   -0.000003254
     51        1           0.000000855   -0.000000505   -0.000002713
     52        6          -0.000000603   -0.000003346    0.000003961
     53        1           0.000001940    0.000006014   -0.000003938
     54        6          -0.000000638    0.000003578   -0.000003267
     55        1          -0.000000400    0.000000968   -0.000000823
     56        1          -0.000000691   -0.000001431    0.000001086
     57        6          -0.000002162    0.000001183    0.000003663
     58        6           0.000005432    0.000003578   -0.000000396
     59        1          -0.000000771    0.000001821    0.000002978
     60        1           0.000000120    0.000002848    0.000000960
     61       35          -0.000002920    0.000005621    0.000006846
 -------------------------------------------------------------------
 Cartesian Forces:  Max     0.000489381 RMS     0.000058973
 NDeriv=    183 NFrqRd=  0 NDerD0=      0 MskFDP=       0 MskDFD=       0 MskDF0=       0
 Re-enter D2Numr:  atom  24 IXYZ=3 step-down number 1
 Basis read from rwf:  (5D, 7F)
   749 basis functions,  1349 primitive gaussians,   800 cartesian basis functions
   174 alpha electrons      174 beta electrons
       nuclear repulsion energy      6625.1878198322 Hartrees.
 NAtoms=   61 NActive=   61 NUniq=   61 SFac= 1.00D+00 NAtFMM=   60 NAOKFM=T Big=T
 Integral buffers will be    131072 words long.
 Raffenetti 2 integral format.
 Two-electron integral symmetry is turned off.
 Nuclear repulsion after empirical dispersion term =     6625.1183814588 Hartrees.
 ------------------------------------------------------------------------------
 Polarizable Continuum Model (PCM)
 =================================
 Model                : PCM.
 Atomic radii         : UFF (Universal Force Field).
 Polarization charges : Total charges.
 Charge compensation  : None.
 Solution method      : On-the-fly selection.
 Cavity type          : Scaled VdW (van der Waals Surface) (Alpha=1.100).
 Cavity algorithm     : GePol (No added spheres)
                        Default sphere list used, NSphG=   61.
                        Lebedev-Laikov grids with approx.  5.0 points / Ang**2.
                        Smoothing algorithm: York/Karplus (Gamma=1.0000).
                        Polarization charges: spherical gaussians, with
                                              point-specific exponents (IZeta= 3).
                        Self-potential: point-specific (ISelfS= 7).
                        Self-field    : sphere-specific E.n sum rule (ISelfD= 2).
 1st derivatives      : Analytical E(r).r(x)/FMM algorithm (CHGder, D1EAlg=3).
                        Cavity 1st derivative terms included.
 Solvent              : TetraHydroFuran, Eps=   7.425700 Eps(inf)=   1.974025
 ------------------------------------------------------------------------------
 One-electron integrals computed using PRISM.
 NBasis=   749 RedAO= T EigKep=  2.25D-04  NBF=   749
 NBsUse=   749 1.00D-06 EigRej= -1.00D+00 NBFU=   749
 Initial guess from the checkpoint file:  "checkpoint.chk"
 B after Tr=     0.000033    0.000000    0.000000
         Rot=    1.000000   -0.000000    0.000000   -0.000001 Ang=   0.00 deg.
 Requested convergence on RMS density matrix=1.00D-08 within 128 cycles.
 Requested convergence on MAX density matrix=1.00D-06.
 Requested convergence on             energy=1.00D-06.
 No special actions if energy rises.
 Inv3:  Mode=1 IEnd=    68516523.
 Iteration    1 A*A^-1 deviation from unit magnitude is 3.66D-15 for   1275.
 Iteration    1 A*A^-1 deviation from orthogonality  is 2.44D-15 for   2571    958.
 Iteration    1 A^-1*A deviation from unit magnitude is 3.33D-15 for   3529.
 Iteration    1 A^-1*A deviation from orthogonality  is 9.21D-14 for   4139   4127.
 Error on total polarization charges =  0.02602
 SCF Done:  E(RwB97XD) =  -6140.23095994     A.U. after    7 cycles
            NFock=  7  Conv=0.96D-08     -V/T= 2.0038

 **********************************************************************

            Population analysis using the SCF density.

 **********************************************************************

 Alpha  occ. eigenvalues -- -482.95275-235.72056 -89.04536 -89.04091 -62.53342
 Alpha  occ. eigenvalues --  -56.33893 -56.33892 -56.33891 -27.48763 -23.54726
 Alpha  occ. eigenvalues --  -23.54308 -23.54257 -19.35891 -19.35744 -19.35554
 Alpha  occ. eigenvalues --  -14.51752 -14.51202 -14.46906 -10.43295 -10.43207
 Alpha  occ. eigenvalues --  -10.43152 -10.37940 -10.37529 -10.37464 -10.36705
 Alpha  occ. eigenvalues --  -10.36397 -10.36269 -10.36251 -10.35966 -10.35873
 Alpha  occ. eigenvalues --  -10.35784 -10.35367 -10.35316 -10.34886 -10.34817
 Alpha  occ. eigenvalues --  -10.34719 -10.34665 -10.34122 -10.33604 -10.33514
 Alpha  occ. eigenvalues --  -10.33190 -10.33153 -10.33032 -10.32999 -10.32798
 Alpha  occ. eigenvalues --  -10.32783 -10.32738 -10.32598 -10.32517 -10.32473
 Alpha  occ. eigenvalues --   -8.70110  -8.09548  -8.09237  -6.51786  -6.51784
 Alpha  occ. eigenvalues --   -6.51780  -6.05014  -6.04697  -6.04622  -6.04302
 Alpha  occ. eigenvalues --   -6.03986  -6.03671  -3.28235  -2.62295  -2.62294
 Alpha  occ. eigenvalues --   -2.62291  -2.62289  -2.62288  -2.14137  -2.13169
 Alpha  occ. eigenvalues --   -2.13036  -1.24869  -1.24718  -1.24483  -1.09364
 Alpha  occ. eigenvalues --   -1.08638  -1.02442  -1.01582  -0.99216  -0.98078
 Alpha  occ. eigenvalues --   -0.95323  -0.94129  -0.92543  -0.91841  -0.90420
 Alpha  occ. eigenvalues --   -0.88960  -0.88354  -0.86888  -0.86611  -0.85994
 Alpha  occ. eigenvalues --   -0.83388  -0.79267  -0.76915  -0.76365  -0.76234
 Alpha  occ. eigenvalues --   -0.75578  -0.74968  -0.74415  -0.72791  -0.72229
 Alpha  occ. eigenvalues --   -0.71061  -0.70412  -0.69290  -0.67524  -0.66320
 Alpha  occ. eigenvalues --   -0.66129  -0.65994  -0.65700  -0.64995  -0.62867
 Alpha  occ. eigenvalues --   -0.62405  -0.61614  -0.60463  -0.59532  -0.59414
 Alpha  occ. eigenvalues --   -0.58657  -0.58200  -0.57944  -0.57841  -0.57744
 Alpha  occ. eigenvalues --   -0.57561  -0.57459  -0.57337  -0.56432  -0.56254
 Alpha  occ. eigenvalues --   -0.55611  -0.55176  -0.55020  -0.54838  -0.54368
 Alpha  occ. eigenvalues --   -0.53776  -0.53549  -0.53262  -0.53051  -0.52988
 Alpha  occ. eigenvalues --   -0.52772  -0.52510  -0.51951  -0.51928  -0.50948
 Alpha  occ. eigenvalues --   -0.49987  -0.49573  -0.48872  -0.48692  -0.48410
 Alpha  occ. eigenvalues --   -0.47950  -0.46349  -0.46237  -0.45913  -0.45811
 Alpha  occ. eigenvalues --   -0.44850  -0.44771  -0.44034  -0.43757  -0.42954
 Alpha  occ. eigenvalues --   -0.42360  -0.41313  -0.40790  -0.40347  -0.38925
 Alpha  occ. eigenvalues --   -0.38039  -0.37432  -0.35993  -0.35739  -0.35224
 Alpha  occ. eigenvalues --   -0.34728  -0.34488  -0.34275  -0.33382  -0.31674
 Alpha  occ. eigenvalues --   -0.30543  -0.29606  -0.29565  -0.29543
 Alpha virt. eigenvalues --   -0.02508  -0.00512  -0.00119   0.00238   0.00647
 Alpha virt. eigenvalues --    0.01212   0.01913   0.02828   0.03131   0.03462
 Alpha virt. eigenvalues --    0.03689   0.04094   0.04493   0.05581   0.05819
 Alpha virt. eigenvalues --    0.08207   0.08605   0.08738   0.08856   0.09357
 Alpha virt. eigenvalues --    0.10018   0.10630   0.12159   0.12467   0.13375
 Alpha virt. eigenvalues --    0.13504   0.13894   0.14355   0.14412   0.15198
 Alpha virt. eigenvalues --    0.15844   0.15998   0.16216   0.17148   0.17577
 Alpha virt. eigenvalues --    0.18172   0.18310   0.18730   0.18904   0.19422
 Alpha virt. eigenvalues --    0.19708   0.20135   0.20949   0.21043   0.21420
 Alpha virt. eigenvalues --    0.21650   0.21886   0.22411   0.23095   0.23244
 Alpha virt. eigenvalues --    0.23580   0.23700   0.24055   0.24588   0.25251
 Alpha virt. eigenvalues --    0.25883   0.26614   0.26870   0.27642   0.28157
 Alpha virt. eigenvalues --    0.28423   0.28819   0.29448   0.30434   0.31286
 Alpha virt. eigenvalues --    0.31866   0.32096   0.32294   0.32648   0.32920
 Alpha virt. eigenvalues --    0.33235   0.33416   0.34226   0.34822   0.34831
 Alpha virt. eigenvalues --    0.35323   0.35687   0.36117   0.36476   0.36864
 Alpha virt. eigenvalues --    0.37375   0.37543   0.37879   0.38575   0.38730
 Alpha virt. eigenvalues --    0.39148   0.39448   0.39808   0.40480   0.40928
 Alpha virt. eigenvalues --    0.41548   0.42054   0.42532   0.42694   0.43285
 Alpha virt. eigenvalues --    0.44394   0.44630   0.45784   0.46291   0.46588
 Alpha virt. eigenvalues --    0.47373   0.47499   0.47999   0.48202   0.48687
 Alpha virt. eigenvalues --    0.49251   0.49425   0.49711   0.50805   0.50999
 Alpha virt. eigenvalues --    0.51073   0.51622   0.52108   0.52223   0.52654
 Alpha virt. eigenvalues --    0.53006   0.53431   0.53702   0.53914   0.54336
 Alpha virt. eigenvalues --    0.54652   0.54795   0.55074   0.55418   0.55631
 Alpha virt. eigenvalues --    0.56451   0.56672   0.56967   0.57336   0.57969
 Alpha virt. eigenvalues --    0.58477   0.58776   0.59983   0.60268   0.60495
 Alpha virt. eigenvalues --    0.60710   0.60987   0.61108   0.61986   0.62672
 Alpha virt. eigenvalues --    0.63622   0.63812   0.64164   0.64593   0.64866
 Alpha virt. eigenvalues --    0.65164   0.65319   0.65928   0.66179   0.66456
 Alpha virt. eigenvalues --    0.66595   0.67164   0.67517   0.68572   0.69032
 Alpha virt. eigenvalues --    0.69124   0.69719   0.69870   0.70715   0.70893
 Alpha virt. eigenvalues --    0.71163   0.71429   0.71631   0.71745   0.71882
 Alpha virt. eigenvalues --    0.72190   0.72496   0.72866   0.73033   0.73209
 Alpha virt. eigenvalues --    0.73609   0.73949   0.74119   0.74501   0.75106
 Alpha virt. eigenvalues --    0.75421   0.75620   0.76066   0.76350   0.76812
 Alpha virt. eigenvalues --    0.77311   0.77499   0.77678   0.77771   0.78096
 Alpha virt. eigenvalues --    0.78190   0.79062   0.79462   0.79649   0.80220
 Alpha virt. eigenvalues --    0.80396   0.80655   0.81115   0.81377   0.82179
 Alpha virt. eigenvalues --    0.82230   0.82552   0.82729   0.83166   0.83484
 Alpha virt. eigenvalues --    0.83689   0.83766   0.84154   0.84360   0.84484
 Alpha virt. eigenvalues --    0.84613   0.85257   0.85658   0.85878   0.85974
 Alpha virt. eigenvalues --    0.86057   0.86476   0.87036   0.87340   0.87461
 Alpha virt. eigenvalues --    0.87917   0.88306   0.88743   0.89196   0.89258
 Alpha virt. eigenvalues --    0.89623   0.90063   0.90498   0.90792   0.91024
 Alpha virt. eigenvalues --    0.91247   0.92240   0.92356   0.92595   0.93382
 Alpha virt. eigenvalues --    0.93833   0.94101   0.94702   0.95286   0.95860
 Alpha virt. eigenvalues --    0.96580   0.97204   0.97389   0.98977   0.99719
 Alpha virt. eigenvalues --    0.99995   1.00923   1.01639   1.02535   1.02782
 Alpha virt. eigenvalues --    1.03161   1.04268   1.05067   1.05910   1.06496
 Alpha virt. eigenvalues --    1.07190   1.07705   1.09126   1.09363   1.10366
 Alpha virt. eigenvalues --    1.11023   1.11693   1.11983   1.12274   1.13057
 Alpha virt. eigenvalues --    1.13364   1.13462   1.14562   1.15282   1.15861
 Alpha virt. eigenvalues --    1.16352   1.16548   1.17676   1.19460   1.19891
 Alpha virt. eigenvalues --    1.20161   1.21352   1.22143   1.22667   1.23513
 Alpha virt. eigenvalues --    1.23944   1.24439   1.25052   1.25726   1.26911
 Alpha virt. eigenvalues --    1.27366   1.27956   1.28111   1.28901   1.29007
 Alpha virt. eigenvalues --    1.29509   1.29624   1.29979   1.30279   1.31131
 Alpha virt. eigenvalues --    1.31902   1.32440   1.32802   1.33066   1.34344
 Alpha virt. eigenvalues --    1.34837   1.35095   1.35687   1.35924   1.36017
 Alpha virt. eigenvalues --    1.36438   1.36572   1.37065   1.37268   1.37678
 Alpha virt. eigenvalues --    1.38602   1.39203   1.39459   1.40421   1.41316
 Alpha virt. eigenvalues --    1.42246   1.44176   1.45980   1.47449   1.48014
 Alpha virt. eigenvalues --    1.48783   1.49835   1.51044   1.52913   1.54596
 Alpha virt. eigenvalues --    1.56329   1.56843   1.57910   1.58459   1.60188
 Alpha virt. eigenvalues --    1.60980   1.61520   1.62727   1.63578   1.64718
 Alpha virt. eigenvalues --    1.64819   1.65978   1.67768   1.68391   1.68787
 Alpha virt. eigenvalues --    1.69303   1.70027   1.70307   1.70855   1.71199
 Alpha virt. eigenvalues --    1.72935   1.73120   1.73303   1.73914   1.74794
 Alpha virt. eigenvalues --    1.75122   1.75662   1.76438   1.76726   1.76738
 Alpha virt. eigenvalues --    1.77163   1.77677   1.78140   1.78377   1.79132
 Alpha virt. eigenvalues --    1.79410   1.79821   1.80181   1.80364   1.80584
 Alpha virt. eigenvalues --    1.81028   1.81455   1.81727   1.82467   1.82611
 Alpha virt. eigenvalues --    1.83673   1.83913   1.84133   1.84641   1.85654
 Alpha virt. eigenvalues --    1.86013   1.86327   1.86722   1.87277   1.87629
 Alpha virt. eigenvalues --    1.88028   1.88587   1.88808   1.89013   1.89532
 Alpha virt. eigenvalues --    1.90075   1.90683   1.91023   1.91812   1.92262
 Alpha virt. eigenvalues --    1.92636   1.93486   1.93761   1.94787   1.95023
 Alpha virt. eigenvalues --    1.96317   1.97782   1.98190   1.99061   1.99678
 Alpha virt. eigenvalues --    2.00178   2.00467   2.01060   2.01631   2.01962
 Alpha virt. eigenvalues --    2.02511   2.02717   2.02898   2.03650   2.04133
 Alpha virt. eigenvalues --    2.04889   2.05289   2.06258   2.06406   2.06604
 Alpha virt. eigenvalues --    2.06730   2.07431   2.08574   2.08904   2.09916
 Alpha virt. eigenvalues --    2.10523   2.10961   2.11857   2.12123   2.12314
 Alpha virt. eigenvalues --    2.14513   2.16458   2.17306   2.17839   2.18354
 Alpha virt. eigenvalues --    2.18564   2.19156   2.19438   2.21120   2.22076
 Alpha virt. eigenvalues --    2.22455   2.23064   2.23474   2.23666   2.24739
 Alpha virt. eigenvalues --    2.26502   2.26830   2.29258   2.29642   2.30466
 Alpha virt. eigenvalues --    2.30920   2.31102   2.31520   2.31809   2.32463
 Alpha virt. eigenvalues --    2.33628   2.34271   2.35116   2.35529   2.36172
 Alpha virt. eigenvalues --    2.36723   2.37117   2.37537   2.38243   2.38469
 Alpha virt. eigenvalues --    2.38556   2.39065   2.39312   2.39551   2.40288
 Alpha virt. eigenvalues --    2.40846   2.41740   2.42260   2.43575   2.45248
 Alpha virt. eigenvalues --    2.46186   2.46936   2.48623   2.49082   2.49384
 Alpha virt. eigenvalues --    2.52478   2.53434   2.54804   2.56193   2.57971
 Alpha virt. eigenvalues --    2.59189   2.59304   2.60149   2.62462   2.64989
 Alpha virt. eigenvalues --    2.66577   2.66800   2.67533   2.68004   2.68223
 Alpha virt. eigenvalues --    2.68339   2.68505   2.68570   2.68770   2.68858
 Alpha virt. eigenvalues --    2.69023   2.69352   2.69487   2.69551   2.70848
 Alpha virt. eigenvalues --    2.72008   2.72583   2.75860   2.76335   2.77827
 Alpha virt. eigenvalues --    2.78548   2.80059   2.80282   2.80998   2.82225
 Alpha virt. eigenvalues --    2.82582   2.82710   2.83709   2.84363   2.85074
 Alpha virt. eigenvalues --    2.86386   2.86881   2.88116   2.88853   2.90962
 Alpha virt. eigenvalues --    2.92468   2.92644   2.95540   2.98091   2.98706
 Alpha virt. eigenvalues --    2.99082   3.01279   3.03005   3.03911   3.04155
 Alpha virt. eigenvalues --    3.04765   3.07147   3.08105   3.08622   3.10219
 Alpha virt. eigenvalues --    3.10518   3.14348   3.15665   3.15915   3.19066
 Alpha virt. eigenvalues --    3.19956   3.21072   3.22029   3.22624   3.22733
 Alpha virt. eigenvalues --    3.23229   3.23872   3.28566   3.28993   3.31229
 Alpha virt. eigenvalues --    3.36838   3.38743   3.39187   3.42250   3.44365
 Alpha virt. eigenvalues --    3.45735   3.49817   3.51894   3.54034   3.57075
 Alpha virt. eigenvalues --    3.58169   3.59552   3.61041   3.61542   3.61809
 Alpha virt. eigenvalues --    3.62138   3.64033   3.69390   3.70313   3.74854
 Alpha virt. eigenvalues --    3.75189   3.76145   3.76750   3.78037   3.78849
 Alpha virt. eigenvalues --    3.80301   3.90266   3.93519   4.02176   4.05724
 Electronic spatial extent (au):  <R**2>=          23960.0991
 Charge=             -0.0000 electrons
 Dipole moment (field-independent basis, Debye):
    X=             28.7829    Y=              8.4257    Z=             -0.3509  Tot=             29.9928
 Quadrupole moment (field-independent basis, Debye-Ang):
   XX=           -404.0821   YY=           -239.0100   ZZ=           -255.3081
   XY=            -38.8081   XZ=             16.4795   YZ=             21.8735
 Traceless Quadrupole moment (field-independent basis, Debye-Ang):
   XX=           -104.6154   YY=             60.4567   ZZ=             44.1587
   XY=            -38.8081   XZ=             16.4795   YZ=             21.8735
 Octapole moment (field-independent basis, Debye-Ang**2):
  XXX=            883.9954  YYY=             14.7463  ZZZ=             17.1833  XYY=             95.4098
  XXY=            342.5212  XXZ=           -130.6136  XZZ=              2.7107  YZZ=             -6.2011
  YYZ=              5.8626  XYZ=              4.4435
 Hexadecapole moment (field-independent basis, Debye-Ang**3):
 XXXX=         -22198.6187 YYYY=          -7243.4918 ZZZZ=          -5638.4434 XXXY=          -1354.4731
 XXXZ=            351.2227 YYYX=             57.4777 YYYZ=            194.4363 ZZZX=            176.5447
 ZZZY=            138.3066 XXYY=          -4373.9444 XXZZ=          -3842.4488 YYZZ=          -1954.6432
 XXYZ=            211.0807 YYXZ=            -24.1734 ZZXY=           -166.0314
 N-N= 6.625118381459D+03 E-N=-2.778703679018D+04  KE= 6.117235549844D+03
 D1PCM: PCM CHGder 1st derivatives, ID1Alg=3 FixD1E=F DoIter=F DoCFld=F I1PDM=0.
 Calling FoFJK, ICntrl=      2127 FMM=T ISym2X=0 I1Cent= 0 IOpClX= 0 NMat=1 NMatS=1 NMatT=0.
 -------------------------------------------------------------------
 Center     Atomic                   Forces (Hartrees/Bohr)
 Number     Number              X              Y              Z
 -------------------------------------------------------------------
      1       25          -0.000008206   -0.000002317   -0.000012025
      2        6           0.000014977    0.000005402    0.000009110
      3        8          -0.000012034   -0.000007388   -0.000002539
      4        6          -0.000007891   -0.000004086   -0.000006410
      5        8           0.000004663    0.000001282    0.000001561
      6        6           0.000004168   -0.000003133   -0.000005704
      7        7           0.000409459    0.000206187   -0.000124914
      8        6           0.000298555   -0.000204371   -0.000009298
      9        6          -0.000007712   -0.000076409    0.000007782
     10        6           0.000127441    0.000019603   -0.000047620
     11        1          -0.000017131    0.000037349   -0.000001352
     12        1           0.000008513   -0.000002523   -0.000002615
     13        7          -0.000003549    0.000010628    0.000011348
     14        6          -0.000000855    0.000002600   -0.000001762
     15        6          -0.000006381   -0.000008393   -0.000001906
     16        6           0.000002802    0.000004137    0.000003827
     17        6           0.000000430    0.000003471    0.000002078
     18        6          -0.000012523    0.000029097   -0.000006367
     19        1          -0.000001085    0.000002100    0.000001153
     20        1           0.000012701   -0.000008798    0.000011801
     21        7           0.000002752   -0.000000518   -0.000006925
     22        6           0.000002356    0.000004216   -0.000003701
     23        6          -0.000000367    0.000002766   -0.000004673
     24        1          -0.000000068   -0.000014901   -0.000002310
     25        6          -0.001389066    0.000130498    0.000326313
     26        1           0.000568756   -0.000149515   -0.000130581
     27        6          -0.000000311   -0.000000489   -0.000000315
     28        1           0.000001715    0.000002866   -0.000003021
     29        1           0.000000193    0.000002797   -0.000000875
     30        8          -0.000002241   -0.000003297    0.000001072
     31       16           0.000001069   -0.000002223   -0.000001124
     32       16           0.000000544   -0.000000948    0.000000719
     33        6           0.000000229    0.000042784   -0.000002172
     34        6           0.000000306   -0.000001115    0.000000582
     35        6          -0.000000311   -0.000004590    0.000006030
     36        6          -0.000000651   -0.000002864    0.000002081
     37        6          -0.000001023   -0.000003199    0.000002152
     38        6          -0.000001853   -0.000001752    0.000001640
     39        6          -0.000000085    0.000003167   -0.000002649
     40        1          -0.000000792   -0.000002711    0.000002639
     41        1          -0.000000785   -0.000003892    0.000003128
     42        1          -0.000000590   -0.000003092    0.000001976
     43        6           0.000002007   -0.000005582    0.000000277
     44        6           0.000000280   -0.000001770   -0.000001522
     45        6          -0.000000053   -0.000001760   -0.000000569
     46        6          -0.000001342   -0.000001314   -0.000001213
     47        6           0.000001491   -0.000000039   -0.000004528
     48        6           0.000000541    0.000001473   -0.000000761
     49        1           0.000000039   -0.000001892   -0.000001492
     50        1           0.000000681   -0.000001383   -0.000003250
     51        1           0.000000864   -0.000000437   -0.000002684
     52        6          -0.000000509    0.000001775   -0.000001618
     53        1           0.000001605    0.000002131   -0.000002617
     54        6           0.000001557    0.000002503   -0.000004276
     55        1          -0.000000451   -0.000000114   -0.000000179
     56        1           0.000003352   -0.000007753   -0.000004148
     57        6          -0.000002159    0.000001157    0.000003678
     58        6           0.000005516    0.000003498   -0.000000369
     59        1          -0.000000755    0.000001820    0.000002988
     60        1           0.000000116    0.000002847    0.000000940
     61       35           0.000001099    0.000006410    0.000005208
 -------------------------------------------------------------------
 Cartesian Forces:  Max     0.001389066 RMS     0.000123804
 NDeriv=    183 NFrqRd=  0 NDerD0=      0 MskFDP=       0 MskDFD=       0 MskDF0=       0
 Re-enter D2Numr:  atom  25 IXYZ=1 step-up   number 1
 Basis read from rwf:  (5D, 7F)
   749 basis functions,  1349 primitive gaussians,   800 cartesian basis functions
   174 alpha electrons      174 beta electrons
       nuclear repulsion energy      6625.1455680823 Hartrees.
 NAtoms=   61 NActive=   61 NUniq=   61 SFac= 1.00D+00 NAtFMM=   60 NAOKFM=T Big=T
 Integral buffers will be    131072 words long.
 Raffenetti 2 integral format.
 Two-electron integral symmetry is turned off.
 Nuclear repulsion after empirical dispersion term =     6625.0761311401 Hartrees.
 ------------------------------------------------------------------------------
 Polarizable Continuum Model (PCM)
 =================================
 Model                : PCM.
 Atomic radii         : UFF (Universal Force Field).
 Polarization charges : Total charges.
 Charge compensation  : None.
 Solution method      : On-the-fly selection.
 Cavity type          : Scaled VdW (van der Waals Surface) (Alpha=1.100).
 Cavity algorithm     : GePol (No added spheres)
                        Default sphere list used, NSphG=   61.
                        Lebedev-Laikov grids with approx.  5.0 points / Ang**2.
                        Smoothing algorithm: York/Karplus (Gamma=1.0000).
                        Polarization charges: spherical gaussians, with
                                              point-specific exponents (IZeta= 3).
                        Self-potential: point-specific (ISelfS= 7).
                        Self-field    : sphere-specific E.n sum rule (ISelfD= 2).
 1st derivatives      : Analytical E(r).r(x)/FMM algorithm (CHGder, D1EAlg=3).
                        Cavity 1st derivative terms included.
 Solvent              : TetraHydroFuran, Eps=   7.425700 Eps(inf)=   1.974025
 ------------------------------------------------------------------------------
 One-electron integrals computed using PRISM.
 NBasis=   749 RedAO= T EigKep=  2.25D-04  NBF=   749
 NBsUse=   749 1.00D-06 EigRej= -1.00D+00 NBFU=   749
 Initial guess from the checkpoint file:  "checkpoint.chk"
 B after Tr=    -0.000033   -0.000000   -0.000000
         Rot=    1.000000   -0.000000   -0.000000    0.000001 Ang=  -0.00 deg.
 Requested convergence on RMS density matrix=1.00D-08 within 128 cycles.
 Requested convergence on MAX density matrix=1.00D-06.
 Requested convergence on             energy=1.00D-06.
 No special actions if energy rises.
 Inv3:  Mode=1 IEnd=    68487852.
 Iteration    1 A*A^-1 deviation from unit magnitude is 4.22D-15 for   1270.
 Iteration    1 A*A^-1 deviation from orthogonality  is 2.00D-15 for   4038   1844.
 Iteration    1 A^-1*A deviation from unit magnitude is 3.77D-15 for   1270.
 Iteration    1 A^-1*A deviation from orthogonality  is 8.86D-14 for   4177   4126.
 Error on total polarization charges =  0.02602
 SCF Done:  E(RwB97XD) =  -6140.23095995     A.U. after    7 cycles
            NFock=  7  Conv=0.96D-08     -V/T= 2.0038

 **********************************************************************

            Population analysis using the SCF density.

 **********************************************************************

 Alpha  occ. eigenvalues -- -482.95274-235.72055 -89.04536 -89.04091 -62.53342
 Alpha  occ. eigenvalues --  -56.33893 -56.33892 -56.33891 -27.48762 -23.54725
 Alpha  occ. eigenvalues --  -23.54307 -23.54255 -19.35890 -19.35743 -19.35553
 Alpha  occ. eigenvalues --  -14.51751 -14.51207 -14.46906 -10.43294 -10.43206
 Alpha  occ. eigenvalues --  -10.43151 -10.37940 -10.37528 -10.37466 -10.36706
 Alpha  occ. eigenvalues --  -10.36398 -10.36277 -10.36251 -10.35967 -10.35874
 Alpha  occ. eigenvalues --  -10.35784 -10.35366 -10.35316 -10.34886 -10.34819
 Alpha  occ. eigenvalues --  -10.34721 -10.34666 -10.34122 -10.33604 -10.33514
 Alpha  occ. eigenvalues --  -10.33198 -10.33153 -10.33032 -10.32999 -10.32799
 Alpha  occ. eigenvalues --  -10.32783 -10.32738 -10.32598 -10.32517 -10.32473
 Alpha  occ. eigenvalues --   -8.70110  -8.09548  -8.09237  -6.51786  -6.51784
 Alpha  occ. eigenvalues --   -6.51780  -6.05015  -6.04698  -6.04622  -6.04302
 Alpha  occ. eigenvalues --   -6.03987  -6.03671  -3.28233  -2.62295  -2.62294
 Alpha  occ. eigenvalues --   -2.62290  -2.62289  -2.62288  -2.14136  -2.13167
 Alpha  occ. eigenvalues --   -2.13035  -1.24868  -1.24717  -1.24483  -1.09362
 Alpha  occ. eigenvalues --   -1.08608  -1.02443  -1.01583  -0.99216  -0.98078
 Alpha  occ. eigenvalues --   -0.95322  -0.94126  -0.92543  -0.91839  -0.90418
 Alpha  occ. eigenvalues --   -0.88960  -0.88354  -0.86889  -0.86611  -0.85994
 Alpha  occ. eigenvalues --   -0.83388  -0.79267  -0.76915  -0.76364  -0.76235
 Alpha  occ. eigenvalues --   -0.75574  -0.74968  -0.74415  -0.72791  -0.72229
 Alpha  occ. eigenvalues --   -0.71060  -0.70412  -0.69290  -0.67524  -0.66319
 Alpha  occ. eigenvalues --   -0.66128  -0.65994  -0.65701  -0.64996  -0.62869
 Alpha  occ. eigenvalues --   -0.62404  -0.61611  -0.60466  -0.59531  -0.59414
 Alpha  occ. eigenvalues --   -0.58657  -0.58202  -0.57944  -0.57840  -0.57742
 Alpha  occ. eigenvalues --   -0.57562  -0.57459  -0.57336  -0.56435  -0.56253
 Alpha  occ. eigenvalues --   -0.55610  -0.55176  -0.55017  -0.54838  -0.54367
 Alpha  occ. eigenvalues --   -0.53778  -0.53549  -0.53261  -0.53049  -0.52988
 Alpha  occ. eigenvalues --   -0.52768  -0.52510  -0.51950  -0.51924  -0.50948
 Alpha  occ. eigenvalues --   -0.49990  -0.49573  -0.48884  -0.48694  -0.48410
 Alpha  occ. eigenvalues --   -0.47957  -0.46349  -0.46238  -0.45914  -0.45813
 Alpha  occ. eigenvalues --   -0.44849  -0.44771  -0.44034  -0.43757  -0.42954
 Alpha  occ. eigenvalues --   -0.42357  -0.41312  -0.40786  -0.40347  -0.38925
 Alpha  occ. eigenvalues --   -0.38039  -0.37431  -0.35993  -0.35739  -0.35224
 Alpha  occ. eigenvalues --   -0.34727  -0.34486  -0.34274  -0.33380  -0.31675
 Alpha  occ. eigenvalues --   -0.30543  -0.29606  -0.29566  -0.29544
 Alpha virt. eigenvalues --   -0.02508  -0.00512  -0.00124   0.00234   0.00647
 Alpha virt. eigenvalues --    0.01211   0.01913   0.02828   0.03132   0.03463
 Alpha virt. eigenvalues --    0.03689   0.04094   0.04489   0.05582   0.05820
 Alpha virt. eigenvalues --    0.08208   0.08606   0.08738   0.08856   0.09359
 Alpha virt. eigenvalues --    0.10019   0.10630   0.12159   0.12467   0.13375
 Alpha virt. eigenvalues --    0.13504   0.13894   0.14354   0.14412   0.15198
 Alpha virt. eigenvalues --    0.15844   0.15997   0.16216   0.17146   0.17576
 Alpha virt. eigenvalues --    0.18170   0.18309   0.18731   0.18899   0.19422
 Alpha virt. eigenvalues --    0.19708   0.20135   0.20949   0.21042   0.21420
 Alpha virt. eigenvalues --    0.21650   0.21886   0.22412   0.23095   0.23245
 Alpha virt. eigenvalues --    0.23581   0.23702   0.24058   0.24599   0.25250
 Alpha virt. eigenvalues --    0.25882   0.26613   0.26870   0.27640   0.28156
 Alpha virt. eigenvalues --    0.28423   0.28819   0.29452   0.30428   0.31286
 Alpha virt. eigenvalues --    0.31867   0.32096   0.32295   0.32641   0.32922
 Alpha virt. eigenvalues --    0.33233   0.33410   0.34225   0.34820   0.34831
 Alpha virt. eigenvalues --    0.35322   0.35687   0.36117   0.36475   0.36864
 Alpha virt. eigenvalues --    0.37370   0.37543   0.37881   0.38576   0.38730
 Alpha virt. eigenvalues --    0.39146   0.39445   0.39808   0.40485   0.40927
 Alpha virt. eigenvalues --    0.41550   0.42054   0.42531   0.42691   0.43281
 Alpha virt. eigenvalues --    0.44391   0.44629   0.45783   0.46290   0.46587
 Alpha virt. eigenvalues --    0.47373   0.47498   0.48000   0.48201   0.48685
 Alpha virt. eigenvalues --    0.49251   0.49425   0.49710   0.50803   0.50998
 Alpha virt. eigenvalues --    0.51071   0.51622   0.52104   0.52223   0.52655
 Alpha virt. eigenvalues --    0.53007   0.53430   0.53697   0.53915   0.54334
 Alpha virt. eigenvalues --    0.54648   0.54794   0.55073   0.55415   0.55630
 Alpha virt. eigenvalues --    0.56452   0.56669   0.56971   0.57335   0.57968
 Alpha virt. eigenvalues --    0.58470   0.58774   0.59980   0.60263   0.60496
 Alpha virt. eigenvalues --    0.60707   0.60983   0.61105   0.61983   0.62669
 Alpha virt. eigenvalues --    0.63621   0.63809   0.64164   0.64594   0.64866
 Alpha virt. eigenvalues --    0.65164   0.65315   0.65926   0.66179   0.66456
 Alpha virt. eigenvalues --    0.66590   0.67162   0.67514   0.68570   0.69030
 Alpha virt. eigenvalues --    0.69119   0.69718   0.69868   0.70715   0.70890
 Alpha virt. eigenvalues --    0.71163   0.71430   0.71630   0.71745   0.71882
 Alpha virt. eigenvalues --    0.72190   0.72495   0.72865   0.73033   0.73209
 Alpha virt. eigenvalues --    0.73611   0.73949   0.74119   0.74499   0.75107
 Alpha virt. eigenvalues --    0.75419   0.75620   0.76065   0.76352   0.76811
 Alpha virt. eigenvalues --    0.77311   0.77499   0.77678   0.77773   0.78093
 Alpha virt. eigenvalues --    0.78187   0.79063   0.79462   0.79649   0.80219
 Alpha virt. eigenvalues --    0.80395   0.80656   0.81125   0.81378   0.82177
 Alpha virt. eigenvalues --    0.82228   0.82553   0.82730   0.83165   0.83488
 Alpha virt. eigenvalues --    0.83690   0.83764   0.84156   0.84360   0.84483
 Alpha virt. eigenvalues --    0.84613   0.85255   0.85655   0.85880   0.85970
 Alpha virt. eigenvalues --    0.86055   0.86473   0.87039   0.87340   0.87459
 Alpha virt. eigenvalues --    0.87917   0.88305   0.88744   0.89197   0.89262
 Alpha virt. eigenvalues --    0.89623   0.90062   0.90496   0.90792   0.91021
 Alpha virt. eigenvalues --    0.91246   0.92243   0.92356   0.92597   0.93381
 Alpha virt. eigenvalues --    0.93830   0.94100   0.94703   0.95288   0.95859
 Alpha virt. eigenvalues --    0.96580   0.97209   0.97389   0.98975   0.99720
 Alpha virt. eigenvalues --    0.99996   1.00923   1.01635   1.02535   1.02783
 Alpha virt. eigenvalues --    1.03161   1.04267   1.05067   1.05911   1.06498
 Alpha virt. eigenvalues --    1.07186   1.07702   1.09125   1.09357   1.10363
 Alpha virt. eigenvalues --    1.11016   1.11691   1.11979   1.12274   1.13056
 Alpha virt. eigenvalues --    1.13363   1.13458   1.14562   1.15281   1.15866
 Alpha virt. eigenvalues --    1.16356   1.16548   1.17675   1.19461   1.19894
 Alpha virt. eigenvalues --    1.20157   1.21352   1.22146   1.22669   1.23511
 Alpha virt. eigenvalues --    1.23945   1.24440   1.25044   1.25721   1.26909
 Alpha virt. eigenvalues --    1.27364   1.27961   1.28113   1.28899   1.29007
 Alpha virt. eigenvalues --    1.29510   1.29623   1.29980   1.30281   1.31131
 Alpha virt. eigenvalues --    1.31906   1.32440   1.32802   1.33065   1.34341
 Alpha virt. eigenvalues --    1.34835   1.35096   1.35687   1.35926   1.36019
 Alpha virt. eigenvalues --    1.36425   1.36566   1.37067   1.37271   1.37681
 Alpha virt. eigenvalues --    1.38599   1.39209   1.39458   1.40423   1.41316
 Alpha virt. eigenvalues --    1.42248   1.44169   1.45973   1.47449   1.48014
 Alpha virt. eigenvalues --    1.48785   1.49833   1.51053   1.52913   1.54597
 Alpha virt. eigenvalues --    1.56330   1.56848   1.57912   1.58460   1.60195
 Alpha virt. eigenvalues --    1.60990   1.61520   1.62727   1.63579   1.64718
[...]
     18        6          -0.000012880    0.000029213   -0.000006662
     19        1          -0.000001049    0.000002130    0.000001144
     20        1           0.000012454   -0.000008750    0.000011371
     21        7           0.000003074    0.000000290   -0.000006586
     22        6           0.000002677    0.000004182   -0.000003471
     23        6          -0.000000588    0.000002895   -0.000004437
     24        1          -0.000000045   -0.000014897   -0.000002278
     25        6          -0.000003735    0.000002918    0.000000733
     26        1          -0.000001915   -0.000001816    0.000000076
     27        6           0.000000023   -0.000000791   -0.000000896
     28        1           0.000001662    0.000002923   -0.000003183
     29        1           0.000000173    0.000002798   -0.000000893
     30        8          -0.000001074   -0.000003555    0.000000244
     31       16           0.000009510   -0.000006089   -0.000003984
     32       16          -0.000003214    0.000036390    0.000036579
     33        6          -0.000000848    0.000000950    0.000004833
     34        6           0.000014397    0.000028993    0.000033454
     35        6           0.000100207   -0.000002824   -0.000001100
     36        6           0.000497744    0.000214363    0.000194676
     37        6          -0.001442747   -0.000051882    0.000080820
     38        6           0.000247743   -0.000107916   -0.000119620
     39        6          -0.000028958   -0.000035824   -0.000051860
     40        1           0.000007024   -0.000004982   -0.000001726
     41        1          -0.000016659   -0.000013290   -0.000006729
     42        1           0.000602896   -0.000085163   -0.000148189
     43        6           0.000000657   -0.000001905   -0.000000619
     44        6           0.000008628   -0.000006107    0.000004279
     45        6          -0.000001689    0.000002054    0.000000162
     46        6          -0.000000580   -0.000002095   -0.000002198
     47        6           0.000000476    0.000000451   -0.000004022
     48        6           0.000000458    0.000002172   -0.000001130
     49        1           0.000000045   -0.000002077   -0.000001182
     50        1           0.000000651   -0.000001108   -0.000003211
     51        1           0.000000779   -0.000000457   -0.000002616
     52        6          -0.000000178    0.000001745   -0.000001856
     53        1           0.000001625    0.000002126   -0.000002682
     54        6           0.000000800    0.000002546   -0.000003866
     55        1          -0.000000483   -0.000000021   -0.000000263
     56        1          -0.000000638   -0.000001451    0.000001095
     57        6          -0.000002143    0.000001145    0.000003682
     58        6           0.000005430    0.000003535   -0.000000392
     59        1          -0.000000761    0.000001827    0.000002977
     60        1           0.000000110    0.000002859    0.000000937
     61       35          -0.000002784    0.000005640    0.000006795
 -------------------------------------------------------------------
 Cartesian Forces:  Max     0.001442747 RMS     0.000126462
 NDeriv=    183 NFrqRd=  0 NDerD0=      0 MskFDP=       0 MskDFD=       0 MskDF0=       0
 Re-enter D2Numr:  atom  37 IXYZ=1 step-up   number 1
 Basis read from rwf:  (5D, 7F)
   749 basis functions,  1349 primitive gaussians,   800 cartesian basis functions
   174 alpha electrons      174 beta electrons
       nuclear repulsion energy      6625.1903594341 Hartrees.
 NAtoms=   61 NActive=   61 NUniq=   61 SFac= 1.00D+00 NAtFMM=   60 NAOKFM=T Big=T
 Integral buffers will be    131072 words long.
 Raffenetti 2 integral format.
 Two-electron integral symmetry is turned off.
 Nuclear repulsion after empirical dispersion term =     6625.1209217399 Hartrees.
 ------------------------------------------------------------------------------
 Polarizable Continuum Model (PCM)
 =================================
 Model                : PCM.
 Atomic radii         : UFF (Universal Force Field).
 Polarization charges : Total charges.
 Charge compensation  : None.
 Solution method      : On-the-fly selection.
 Cavity type          : Scaled VdW (van der Waals Surface) (Alpha=1.100).
 Cavity algorithm     : GePol (No added spheres)
                        Default sphere list used, NSphG=   61.
                        Lebedev-Laikov grids with approx.  5.0 points / Ang**2.
                        Smoothing algorithm: York/Karplus (Gamma=1.0000).
                        Polarization charges: spherical gaussians, with
                                              point-specific exponents (IZeta= 3).
                        Self-potential: point-specific (ISelfS= 7).
                        Self-field    : sphere-specific E.n sum rule (ISelfD= 2).
 1st derivatives      : Analytical E(r).r(x)/FMM algorithm (CHGder, D1EAlg=3).
                        Cavity 1st derivative terms included.
 Solvent              : TetraHydroFuran, Eps=   7.425700 Eps(inf)=   1.974025
 ------------------------------------------------------------------------------
 One-electron integrals computed using PRISM.
 NBasis=   749 RedAO= T EigKep=  2.25D-04  NBF=   749
 NBsUse=   749 1.00D-06 EigRej= -1.00D+00 NBFU=   749
 Initial guess from the checkpoint file:  "checkpoint.chk"
 B after Tr=    -0.000033   -0.000000   -0.000000
         Rot=    1.000000   -0.000000   -0.000001    0.000002 Ang=  -0.00 deg.
 Requested convergence on RMS density matrix=1.00D-08 within 128 cycles.
 Requested convergence on MAX density matrix=1.00D-06.
 Requested convergence on             energy=1.00D-06.
 No special actions if energy rises.
 Inv3:  Mode=1 IEnd=    68516523.
 Iteration    1 A*A^-1 deviation from unit magnitude is 3.11D-15 for    362.
 Iteration    1 A*A^-1 deviation from orthogonality  is 2.89D-15 for   3404   2053.
 Iteration    1 A^-1*A deviation from unit magnitude is 3.11D-15 for    362.
 Iteration    1 A^-1*A deviation from orthogonality  is 4.01D-14 for   4179   4127.
 Error on total polarization charges =  0.02602
 SCF Done:  E(RwB97XD) =  -6140.23095989     A.U. after    7 cycles
            NFock=  7  Conv=0.85D-08     -V/T= 2.0038

 **********************************************************************

            Population analysis using the SCF density.

 **********************************************************************

 Alpha  occ. eigenvalues -- -482.95274-235.72055 -89.04536 -89.04093 -62.53342
 Alpha  occ. eigenvalues --  -56.33893 -56.33892 -56.33891 -27.48762 -23.54725
 Alpha  occ. eigenvalues --  -23.54308 -23.54256 -19.35890 -19.35743 -19.35553
 Alpha  occ. eigenvalues --  -14.51751 -14.51204 -14.46906 -10.43294 -10.43207
 Alpha  occ. eigenvalues --  -10.43151 -10.37940 -10.37528 -10.37465 -10.36705
 Alpha  occ. eigenvalues --  -10.36398 -10.36273 -10.36250 -10.35967 -10.35870
 Alpha  occ. eigenvalues --  -10.35784 -10.35367 -10.35316 -10.34887 -10.34818
 Alpha  occ. eigenvalues --  -10.34719 -10.34664 -10.34122 -10.33604 -10.33514
 Alpha  occ. eigenvalues --  -10.33193 -10.33154 -10.33029 -10.33000 -10.32798
 Alpha  occ. eigenvalues --  -10.32783 -10.32738 -10.32591 -10.32517 -10.32473
 Alpha  occ. eigenvalues --   -8.70110  -8.09548  -8.09239  -6.51786  -6.51784
 Alpha  occ. eigenvalues --   -6.51780  -6.05014  -6.04700  -6.04622  -6.04304
 Alpha  occ. eigenvalues --   -6.03986  -6.03673  -3.28234  -2.62295  -2.62294
 Alpha  occ. eigenvalues --   -2.62290  -2.62289  -2.62288  -2.14136  -2.13168
 Alpha  occ. eigenvalues --   -2.13036  -1.24869  -1.24718  -1.24483  -1.09363
 Alpha  occ. eigenvalues --   -1.08622  -1.02442  -1.01584  -0.99219  -0.98078
 Alpha  occ. eigenvalues --   -0.95323  -0.94128  -0.92547  -0.91840  -0.90419
 Alpha  occ. eigenvalues --   -0.88960  -0.88354  -0.86890  -0.86611  -0.85994
 Alpha  occ. eigenvalues --   -0.83390  -0.79269  -0.76915  -0.76363  -0.76234
 Alpha  occ. eigenvalues --   -0.75576  -0.74968  -0.74415  -0.72793  -0.72229
 Alpha  occ. eigenvalues --   -0.71060  -0.70409  -0.69290  -0.67526  -0.66320
 Alpha  occ. eigenvalues --   -0.66129  -0.65994  -0.65700  -0.64996  -0.62868
 Alpha  occ. eigenvalues --   -0.62405  -0.61612  -0.60464  -0.59532  -0.59414
 Alpha  occ. eigenvalues --   -0.58660  -0.58202  -0.57944  -0.57840  -0.57743
 Alpha  occ. eigenvalues --   -0.57557  -0.57458  -0.57336  -0.56431  -0.56253
 Alpha  occ. eigenvalues --   -0.55610  -0.55176  -0.55018  -0.54836  -0.54367
 Alpha  occ. eigenvalues --   -0.53776  -0.53548  -0.53262  -0.53050  -0.52991
 Alpha  occ. eigenvalues --   -0.52770  -0.52512  -0.51950  -0.51926  -0.50948
 Alpha  occ. eigenvalues --   -0.49987  -0.49575  -0.48873  -0.48692  -0.48409
 Alpha  occ. eigenvalues --   -0.47954  -0.46349  -0.46238  -0.45913  -0.45808
 Alpha  occ. eigenvalues --   -0.44849  -0.44776  -0.44034  -0.43757  -0.42955
 Alpha  occ. eigenvalues --   -0.42359  -0.41312  -0.40788  -0.40346  -0.38925
 Alpha  occ. eigenvalues --   -0.38039  -0.37432  -0.35994  -0.35739  -0.35224
 Alpha  occ. eigenvalues --   -0.34728  -0.34487  -0.34275  -0.33381  -0.31676
 Alpha  occ. eigenvalues --   -0.30544  -0.29606  -0.29565  -0.29543
 Alpha virt. eigenvalues --   -0.02508  -0.00512  -0.00120   0.00236   0.00648
 Alpha virt. eigenvalues --    0.01212   0.01913   0.02827   0.03132   0.03463
 Alpha virt. eigenvalues --    0.03689   0.04095   0.04495   0.05581   0.05820
 Alpha virt. eigenvalues --    0.08208   0.08605   0.08738   0.08855   0.09358
 Alpha virt. eigenvalues --    0.10018   0.10628   0.12159   0.12467   0.13375
 Alpha virt. eigenvalues --    0.13504   0.13894   0.14355   0.14412   0.15198
 Alpha virt. eigenvalues --    0.15843   0.15994   0.16216   0.17147   0.17576
 Alpha virt. eigenvalues --    0.18172   0.18309   0.18732   0.18901   0.19422
 Alpha virt. eigenvalues --    0.19708   0.20133   0.20949   0.21044   0.21421
 Alpha virt. eigenvalues --    0.21650   0.21886   0.22411   0.23094   0.23244
 Alpha virt. eigenvalues --    0.23580   0.23701   0.24057   0.24594   0.25251
 Alpha virt. eigenvalues --    0.25883   0.26614   0.26872   0.27641   0.28156
 Alpha virt. eigenvalues --    0.28423   0.28820   0.29450   0.30431   0.31286
 Alpha virt. eigenvalues --    0.31867   0.32097   0.32296   0.32647   0.32923
 Alpha virt. eigenvalues --    0.33235   0.33414   0.34226   0.34826   0.34831
 Alpha virt. eigenvalues --    0.35324   0.35690   0.36117   0.36476   0.36863
 Alpha virt. eigenvalues --    0.37374   0.37543   0.37880   0.38577   0.38730
 Alpha virt. eigenvalues --    0.39147   0.39447   0.39809   0.40483   0.40928
 Alpha virt. eigenvalues --    0.41550   0.42052   0.42529   0.42692   0.43284
 Alpha virt. eigenvalues --    0.44391   0.44629   0.45785   0.46291   0.46587
 Alpha virt. eigenvalues --    0.47373   0.47499   0.48000   0.48204   0.48688
 Alpha virt. eigenvalues --    0.49252   0.49426   0.49710   0.50805   0.50999
 Alpha virt. eigenvalues --    0.51074   0.51626   0.52106   0.52219   0.52655
 Alpha virt. eigenvalues --    0.53006   0.53430   0.53699   0.53914   0.54335
 Alpha virt. eigenvalues --    0.54650   0.54794   0.55073   0.55416   0.55631
 Alpha virt. eigenvalues --    0.56452   0.56671   0.56969   0.57337   0.57968
 Alpha virt. eigenvalues --    0.58472   0.58773   0.59982   0.60265   0.60494
 Alpha virt. eigenvalues --    0.60708   0.60985   0.61106   0.61984   0.62670
 Alpha virt. eigenvalues --    0.63623   0.63811   0.64164   0.64595   0.64866
 Alpha virt. eigenvalues --    0.65165   0.65317   0.65928   0.66179   0.66456
 Alpha virt. eigenvalues --    0.66592   0.67164   0.67516   0.68572   0.69031
 Alpha virt. eigenvalues --    0.69122   0.69717   0.69869   0.70715   0.70890
 Alpha virt. eigenvalues --    0.71163   0.71429   0.71632   0.71745   0.71881
 Alpha virt. eigenvalues --    0.72182   0.72496   0.72865   0.73033   0.73209
 Alpha virt. eigenvalues --    0.73610   0.73950   0.74119   0.74498   0.75106
 Alpha virt. eigenvalues --    0.75419   0.75620   0.76065   0.76351   0.76813
 Alpha virt. eigenvalues --    0.77312   0.77499   0.77677   0.77773   0.78094
 Alpha virt. eigenvalues --    0.78191   0.79064   0.79463   0.79649   0.80221
 Alpha virt. eigenvalues --    0.80395   0.80656   0.81120   0.81378   0.82180
 Alpha virt. eigenvalues --    0.82229   0.82552   0.82730   0.83166   0.83487
 Alpha virt. eigenvalues --    0.83689   0.83766   0.84157   0.84362   0.84485
 Alpha virt. eigenvalues --    0.84616   0.85258   0.85658   0.85881   0.85975
 Alpha virt. eigenvalues --    0.86057   0.86475   0.87038   0.87341   0.87460
 Alpha virt. eigenvalues --    0.87917   0.88306   0.88746   0.89197   0.89260
 Alpha virt. eigenvalues --    0.89623   0.90064   0.90497   0.90792   0.91022
 Alpha virt. eigenvalues --    0.91247   0.92242   0.92356   0.92597   0.93382
 Alpha virt. eigenvalues --    0.93832   0.94102   0.94703   0.95288   0.95861
 Alpha virt. eigenvalues --    0.96580   0.97207   0.97390   0.98977   0.99720
 Alpha virt. eigenvalues --    0.99996   1.00925   1.01638   1.02539   1.02782
 Alpha virt. eigenvalues --    1.03163   1.04268   1.05067   1.05910   1.06498
 Alpha virt. eigenvalues --    1.07188   1.07704   1.09126   1.09364   1.10365
 Alpha virt. eigenvalues --    1.11020   1.11693   1.11981   1.12274   1.13056
 Alpha virt. eigenvalues --    1.13363   1.13461   1.14562   1.15282   1.15864
 Alpha virt. eigenvalues --    1.16354   1.16548   1.17676   1.19461   1.19894
 Alpha virt. eigenvalues --    1.20159   1.21353   1.22145   1.22669   1.23513
 Alpha virt. eigenvalues --    1.23944   1.24440   1.25049   1.25724   1.26910
 Alpha virt. eigenvalues --    1.27364   1.27959   1.28111   1.28900   1.29006
 Alpha virt. eigenvalues --    1.29509   1.29620   1.29980   1.30280   1.31132
 Alpha virt. eigenvalues --    1.31904   1.32441   1.32802   1.33064   1.34346
 Alpha virt. eigenvalues --    1.34839   1.35096   1.35692   1.35926   1.36018
 Alpha virt. eigenvalues --    1.36432   1.36570   1.37068   1.37272   1.37680
 Alpha virt. eigenvalues --    1.38601   1.39207   1.39460   1.40422   1.41318
 Alpha virt. eigenvalues --    1.42247   1.44173   1.45976   1.47448   1.48018
 Alpha virt. eigenvalues --    1.48786   1.49834   1.51050   1.52913   1.54597
 Alpha virt. eigenvalues --    1.56328   1.56849   1.57909   1.58456   1.60191
 Alpha virt. eigenvalues --    1.60984   1.61521   1.62726   1.63578   1.64717
 Alpha virt. eigenvalues --    1.64817   1.65987   1.67768   1.68390   1.68788
 Alpha virt. eigenvalues --    1.69302   1.70027   1.70308   1.70856   1.71199
 Alpha virt. eigenvalues --    1.72935   1.73120   1.73304   1.73913   1.74794
 Alpha virt. eigenvalues --    1.75122   1.75661   1.76444   1.76726   1.76754
 Alpha virt. eigenvalues --    1.77163   1.77676   1.78140   1.78375   1.79134
 Alpha virt. eigenvalues --    1.79408   1.79824   1.80177   1.80364   1.80584
 Alpha virt. eigenvalues --    1.81022   1.81454   1.81724   1.82467   1.82597
 Alpha virt. eigenvalues --    1.83673   1.83911   1.84132   1.84652   1.85654
 Alpha virt. eigenvalues --    1.86012   1.86325   1.86722   1.87283   1.87628
 Alpha virt. eigenvalues --    1.88026   1.88587   1.88806   1.89020   1.89528
 Alpha virt. eigenvalues --    1.90077   1.90683   1.91021   1.91812   1.92264
 Alpha virt. eigenvalues --    1.92635   1.93486   1.93762   1.94784   1.95019
 Alpha virt. eigenvalues --    1.96312   1.97782   1.98188   1.99061   1.99676
 Alpha virt. eigenvalues --    2.00175   2.00469   2.01057   2.01629   2.01953
 Alpha virt. eigenvalues --    2.02510   2.02720   2.02898   2.03649   2.04146
 Alpha virt. eigenvalues --    2.04890   2.05292   2.06258   2.06403   2.06614
 Alpha virt. eigenvalues --    2.06730   2.07436   2.08572   2.08903   2.09914
 Alpha virt. eigenvalues --    2.10527   2.10959   2.11846   2.12121   2.12313
 Alpha virt. eigenvalues --    2.14515   2.16466   2.17310   2.17837   2.18352
 Alpha virt. eigenvalues --    2.18565   2.19159   2.19436   2.21120   2.22083
 Alpha virt. eigenvalues --    2.22459   2.23063   2.23474   2.23667   2.24744
 Alpha virt. eigenvalues --    2.26505   2.26836   2.29257   2.29643   2.30465
 Alpha virt. eigenvalues --    2.30918   2.31103   2.31518   2.31810   2.32472
 Alpha virt. eigenvalues --    2.33626   2.34269   2.35109   2.35529   2.36174
 Alpha virt. eigenvalues --    2.36723   2.37119   2.37535   2.38241   2.38476
 Alpha virt. eigenvalues --    2.38552   2.39066   2.39311   2.39548   2.40286
 Alpha virt. eigenvalues --    2.40840   2.41742   2.42260   2.43575   2.45246
 Alpha virt. eigenvalues --    2.46179   2.46947   2.48627   2.49081   2.49373
 Alpha virt. eigenvalues --    2.52477   2.53434   2.54803   2.56186   2.57970
 Alpha virt. eigenvalues --    2.59192   2.59301   2.60151   2.62464   2.64985
 Alpha virt. eigenvalues --    2.66567   2.66800   2.67533   2.68002   2.68218
 Alpha virt. eigenvalues --    2.68339   2.68505   2.68570   2.68770   2.68859
 Alpha virt. eigenvalues --    2.69021   2.69353   2.69496   2.69550   2.70848
 Alpha virt. eigenvalues --    2.72009   2.72592   2.75860   2.76340   2.77828
 Alpha virt. eigenvalues --    2.78548   2.80059   2.80282   2.81001   2.82228
 Alpha virt. eigenvalues --    2.82581   2.82702   2.83684   2.84364   2.85061
 Alpha virt. eigenvalues --    2.86375   2.86884   2.88120   2.88864   2.90964
 Alpha virt. eigenvalues --    2.92479   2.92644   2.95540   2.98095   2.98706
 Alpha virt. eigenvalues --    2.99093   3.01284   3.03010   3.03897   3.04161
 Alpha virt. eigenvalues --    3.04734   3.07150   3.08105   3.08632   3.10224
 Alpha virt. eigenvalues --    3.10518   3.14346   3.15654   3.15915   3.19064
 Alpha virt. eigenvalues --    3.19936   3.21074   3.22029   3.22623   3.22736
 Alpha virt. eigenvalues --    3.23231   3.23873   3.28566   3.28993   3.31229
 Alpha virt. eigenvalues --    3.36829   3.38740   3.39180   3.42249   3.44365
 Alpha virt. eigenvalues --    3.45736   3.49818   3.51895   3.54034   3.57085
 Alpha virt. eigenvalues --    3.58187   3.59552   3.61042   3.61543   3.61809
 Alpha virt. eigenvalues --    3.62138   3.64034   3.69389   3.70300   3.74854
 Alpha virt. eigenvalues --    3.75189   3.76146   3.76750   3.78037   3.78850
 Alpha virt. eigenvalues --    3.80302   3.90267   3.93519   4.02176   4.05725
 Electronic spatial extent (au):  <R**2>=          23960.0178
 Charge=             -0.0000 electrons
 Dipole moment (field-independent basis, Debye):
    X=             28.7835    Y=              8.4257    Z=             -0.3503  Tot=             29.9934
 Quadrupole moment (field-independent basis, Debye-Ang):
   XX=           -404.0834   YY=           -239.0118   ZZ=           -255.3093
   XY=            -38.8026   XZ=             16.4826   YZ=             21.8741
 Traceless Quadrupole moment (field-independent basis, Debye-Ang):
   XX=           -104.6152   YY=             60.4563   ZZ=             44.1588
   XY=            -38.8026   XZ=             16.4826   YZ=             21.8741
 Octapole moment (field-independent basis, Debye-Ang**2):
  XXX=            883.9990  YYY=             14.7379  ZZZ=             17.1799  XYY=             95.4347
  XXY=            342.5598  XXZ=           -130.5710  XZZ=              2.7164  YZZ=             -6.2054
  YYZ=              5.8590  XYZ=              4.4280
 Hexadecapole moment (field-independent basis, Debye-Ang**3):
 XXXX=         -22198.7403 YYYY=          -7243.4484 ZZZZ=          -5638.4152 XXXY=          -1354.2210
 XXXZ=            351.4579 YYYX=             57.4015 YYYZ=            194.4902 ZZZX=            176.5051
 ZZZY=            138.3422 XXYY=          -4374.0504 XXZZ=          -3842.5507 YYZZ=          -1954.6228
 XXYZ=            210.9646 YYXZ=            -24.1706 ZZXY=           -166.0257
 N-N= 6.625120921740D+03 E-N=-2.778704196536D+04  KE= 6.117235395414D+03
 D1PCM: PCM CHGder 1st derivatives, ID1Alg=3 FixD1E=F DoIter=F DoCFld=F I1PDM=0.
 Calling FoFJK, ICntrl=      2127 FMM=T ISym2X=0 I1Cent= 0 IOpClX= 0 NMat=1 NMatS=1 NMatT=0.
