 Entering Gaussian System, Link 0=g16
 Initial command:
 /home1/apps/gaussian/16rA.03/g16/l1.exe "/tmp/Gau-261583.inp" -scrdir="/tmp/"
 Entering Link 1 = /home1/apps/gaussian/16rA.03/g16/l1.exe PID=    261585.
  
 Copyright (c) 1988,1990,1992,1993,1995,1998,2003,2009,2016,
            Gaussian, Inc.  All Rights Reserved.
  
 This is part of the Gaussian(R) 16 program.  It is based on
 the Gaussian(R) 09 system (copyright 2009, Gaussian, Inc.),
 the Gaussian(R) 03 system (copyright 2003, Gaussian, Inc.),
 the Gaussian(R) 98 system (copyright 1998, Gaussian, Inc.),
 the Gaussian(R) 94 system (copyright 1995, Gaussian, Inc.),
 the Gaussian 92(TM) system (copyright 1992, Gaussian, Inc.),
 the Gaussian 90(TM) system (copyright 1990, Gaussian, Inc.),
 the Gaussian 88(TM) system (copyright 1988, Gaussian, Inc.),
 the Gaussian 86(TM) system (copyright 1986, Carnegie Mellon
 University), and the Gaussian 82(TM) system (copyright 1983,
 Carnegie Mellon University). Gaussian is a federally registered
 trademark of Gaussian, Inc.
  
 This software contains proprietary and confidential information,
 including trade secrets, belonging to Gaussian, Inc.
  
 This software is provided under written license and may be
 used, copied, transmitted, or stored only in accord with that
 written license.
  
 The following legend is applicable only to US Government
 contracts under FAR:
  
                    RESTRICTED RIGHTS LEGEND
  
 Use, reproduction and disclosure by the US Government is
 subject to restrictions as set forth in subparagraphs (a)
 and (c) of the Commercial Computer Software - Restricted
 Rights clause in FAR 52.227-19.
  
 Gaussian, Inc.
 340 Quinnipiac St., Bldg. 40, Wallingford CT 06492
  
  
 ---------------------------------------------------------------
 Warning -- This program may not be used in any manner that
 competes with the business of Gaussian, Inc. or will provide
 assistance to any competitor of Gaussian, Inc.  The licensee
 of this program is prohibited from giving any competitor of
 Gaussian, Inc. access to this program.  By using this program,
 the user acknowledges that Gaussian, Inc. is engaged in the
 business of creating and licensing software in the field of
 computational chemistry and represents and warrants to the
 licensee that it is not a competitor of Gaussian, Inc. and that
 it will not use this program in any manner prohibited above.
 ---------------------------------------------------------------
  

 Cite this work as:
 Gaussian 16, Revision A.03,
 M. J. Frisch, G. W. Trucks, H. B. Schlegel, G. E. Scuseria, 
 M. A. Robb, J. R. Cheeseman, G. Scalmani, V. Barone, 
 G. A. Petersson, H. Nakatsuji, X. Li, M. Caricato, A. V. Marenich, 
 J. Bloino, B. G. Janesko, R. Gomperts, B. Mennucci, H. P. Hratchian, 
 J. V. Ortiz, A. F. Izmaylov, J. L. Sonnenberg, D. Williams-Young, 
 F. Ding, F. Lipparini, F. Egidi, J. Goings, B. Peng, A. Petrone, 
 T. Henderson, D. Ranasinghe, V. G. Zakrzewski, J. Gao, N. Rega, 
 G. Zheng, W. Liang, M. Hada, M. Ehara, K. Toyota, R. Fukuda, 
 J. Hasegawa, M. Ishida, T. Nakajima, Y. Honda, O. Kitao, H. Nakai, 
 T. Vreven, K. Throssell, J. A. Montgomery, Jr., J. E. Peralta, 
 F. Ogliaro, M. J. Bearpark, J. J. Heyd, E. N. Brothers, K. N. Kudin, 
 V. N. Staroverov, T. A. Keith, R. Kobayashi, J. Normand, 
 K. Raghavachari, A. P. Rendell, J. C. Burant, S. S. Iyengar, 
 J. Tomasi, M. Cossi, J. M. Millam, M. Klene, C. Adamo, R. Cammi, 
 J. W. Ochterski, R. L. Martin, K. Morokuma, O. Farkas, 
 J. B. Foresman, and D. J. Fox, Gaussian, Inc., Wallingford CT, 2016.
 
 ******************************************
 Gaussian 16:  ES64L-G16RevA.03 25-Dec-2016
                21-Mar-2023 
 ******************************************
 %NProcShared=12
 Will use up to   12 processors via shared memory.
 %Chk=checkpoint.chk
 %Mem=1200MW
 -------------------------------------------
 # wB97XD Gen SCRF=(Solvent=TetraHydroFuran)
 -------------------------------------------
 1/38=1,172=1/1;
 2/12=2,17=6,18=5,40=1/2;
 3/5=7,11=2,25=1,30=1,70=2201,72=20,74=-58/1,2,3;
 4//1;
 5/5=2,38=5,53=20/2;
 6/7=2,8=2,9=2,10=2,28=1/1;
 99/5=1,9=1/99;
 ---------------------
 Anth Prod Calculation
 ---------------------
 Symbolic Z-matrix:
 Charge =  0 Multiplicity = 1
 Mn                   -2.075    -1.58743  -1.06171 
 C                    -3.08435  -1.32061  -2.55252 
 O                    -3.7175   -1.14518  -3.48879 
 C                    -2.84661  -3.20234  -0.72789 
 O                    -3.32874  -4.21583  -0.50724 
 C                    -0.81435  -2.37993  -2.06083 
 N                    -0.92294  -1.75174   0.76321 
 C                    -0.7423   -1.73893   3.15414 
 C                     0.64656  -1.81416   3.08094 
 C                     0.40694  -1.87144   0.70632 
 H                    -1.25528  -1.69387   4.11501 
 H                     1.25788  -1.81731   3.98571 
 N                    -5.23372   3.23301   1.57504 
 C                    -4.08026   3.20386   1.67196 
 C                    -2.64604   3.17246   1.784 
 C                    -1.91395   4.36482   1.69159 
 C                    -0.52554   4.3232    1.77509 
 C                    -1.99041   1.9462    1.96382 
 H                    -2.43357   5.31397   1.55063 
 H                    -2.57348   1.02506   2.0076 
 N                    -1.18935   0.36941  -1.29163 
 C                    -1.35249   2.75611  -1.43019 
 C                     0.02621   2.8727   -1.57351 
 H                    -1.99459   3.63675  -1.41318 
 C                    -1.48606  -1.69757   1.98173 
 H                    -2.57277  -1.60472   2.00445 
 C                    -1.91818   1.49709  -1.27767 
 H                    -2.99136   1.37574  -1.12391 
 H                     0.04927   5.24807   1.70137 
 O                    -0.0547   -2.9185   -2.73575 
 S                     2.53422   0.70493   0.78854 
 S                     5.65815   0.50243   0.16213 
 C                     1.24412  -1.8742    1.82272 
 C                     2.71905  -1.92294   1.61351 
 C                     3.44683  -3.06886   1.94758 
 C                     4.81497  -3.1408    1.69369 
 C                     5.47631  -2.06992   1.09846 
 C                     4.77364  -0.90017   0.79924 
 C                     3.39954  -0.82247   1.05942 
 H                     2.92533  -3.91956   2.39094 
 H                     5.36876  -4.04685   1.94547 
 H                     6.54294  -2.13305   0.8743 
 C                     3.15191   1.18617  -0.80714 
 C                     4.52845   1.11903  -1.06322 
 C                     5.04122   1.59405  -2.27257 
 C                     4.18521   2.17158  -3.20583 
 C                     2.81545   2.226    -2.96062 
 C                     2.27571   1.71324  -1.77571 
 H                     6.11176   1.51945  -2.47339 
 H                     4.58732   2.56178  -4.14233 
 H                     2.14221   2.64708  -3.71019 
 C                     0.79776   1.71045  -1.58646 
 H                     0.49858   3.85254  -1.67044 
 C                     0.13024   0.49178  -1.46561 
 H                     0.71315  -0.42524  -1.53065 
 H                     0.86027  -1.97509  -0.2788 
 C                     0.12871   3.1031    1.94944 
 C                    -0.60262   1.919     2.04446 
 H                    -0.08712   0.96522   2.1691 
 H                     1.21884   3.07311   2.00792 
 Br                   -4.15359  -0.60666   0.19944 
 
 Stoichiometry    C32H19BrMnN3O3S2
 Framework group  C1[X(C32H19BrMnN3O3S2)]
 Deg. of freedom   177
 Full point group                 C1      NOp   1
 Largest Abelian subgroup         C1      NOp   1
 Largest concise Abelian subgroup C1      NOp   1
                         Standard orientation:                         
 ---------------------------------------------------------------------
 Center     Atomic      Atomic             Coordinates (Angstroms)
 Number     Number       Type             X           Y           Z
 ---------------------------------------------------------------------
      1         25           0        2.075000   -1.587429    1.061710
      2          6           0        3.084350   -1.320608    2.552520
      3          8           0        3.717500   -1.145178    3.488790
      4          6           0        2.846610   -3.202339    0.727890
      5          8           0        3.328740   -4.215828    0.507240
      6          6           0        0.814350   -2.379929    2.060830
      7          7           0        0.922940   -1.751739   -0.763210
      8          6           0        0.742300   -1.738929   -3.154140
      9          6           0       -0.646560   -1.814159   -3.080940
     10          6           0       -0.406940   -1.871439   -0.706320
     11          1           0        1.255280   -1.693869   -4.115010
     12          1           0       -1.257880   -1.817309   -3.985710
     13          7           0        5.233719    3.233012   -1.575040
     14          6           0        4.080259    3.203862   -1.671960
     15          6           0        2.646039    3.172461   -1.784000
     16          6           0        1.913949    4.364821   -1.691590
     17          6           0        0.525539    4.323201   -1.775090
     18          6           0        1.990409    1.946201   -1.963820
     19          1           0        2.433569    5.313971   -1.550630
     20          1           0        2.573479    1.025061   -2.007600
     21          7           0        1.189349    0.369411    1.291630
     22          6           0        1.352489    2.756111    1.430190
     23          6           0       -0.026211    2.872701    1.573510
     24          1           0        1.994589    3.636751    1.413180
     25          6           0        1.486060   -1.697569   -1.981730
     26          1           0        2.572770   -1.604719   -2.004450
     27          6           0        1.918179    1.497091    1.277670
     28          1           0        2.991359    1.375742    1.123910
     29          1           0       -0.049271    5.248071   -1.701370
     30          8           0        0.054700   -2.918499    2.735750
     31         16           0       -2.534221    0.704930   -0.788540
     32         16           0       -5.658151    0.502430   -0.162130
     33          6           0       -1.244120   -1.874199   -1.822720
     34          6           0       -2.719050   -1.922940   -1.613510
     35          6           0       -3.446830   -3.068860   -1.947580
     36          6           0       -4.814970   -3.140800   -1.693690
     37          6           0       -5.476310   -2.069920   -1.098460
     38          6           0       -4.773640   -0.900170   -0.799240
     39          6           0       -3.399540   -0.822470   -1.059420
     40          1           0       -2.925330   -3.919560   -2.390940
     41          1           0       -5.368760   -4.046850   -1.945470
     42          1           0       -6.542940   -2.133050   -0.874300
     43          6           0       -3.151911    1.186170    0.807140
     44          6           0       -4.528451    1.119030    1.063220
     45          6           0       -5.041221    1.594050    2.272570
     46          6           0       -4.185211    2.171580    3.205830
     47          6           0       -2.815451    2.226000    2.960620
     48          6           0       -2.275711    1.713241    1.775710
     49          1           0       -6.111761    1.519450    2.473390
     50          1           0       -4.587321    2.561780    4.142330
     51          1           0       -2.142211    2.647081    3.710190
     52          6           0       -0.797761    1.710451    1.586460
     53          1           0       -0.498581    3.852541    1.670440
     54          6           0       -0.130241    0.491781    1.465610
     55          1           0       -0.713150   -0.425239    1.530650
     56          1           0       -0.860270   -1.975089    0.278800
     57          6           0       -0.128711    3.103101   -1.949440
     58          6           0        0.602619    1.919001   -2.044460
     59          1           0        0.087119    0.965221   -2.169100
     60          1           0       -1.218841    3.073111   -2.007920
     61         35           0        4.153590   -0.606658   -0.199440
 ---------------------------------------------------------------------
 Rotational constants (GHZ):           0.0998150           0.0572552           0.0506243
 General basis read from cards:  (5D, 7F)
 There are  1894 symmetry adapted cartesian basis functions of A   symmetry.
 There are  1649 symmetry adapted basis functions of A   symmetry.
  1649 basis functions,  2653 primitive gaussians,  1894 cartesian basis functions
   174 alpha electrons      174 beta electrons
       nuclear repulsion energy      6844.8048066014 Hartrees.
 NAtoms=   61 NActive=   61 NUniq=   61 SFac= 1.00D+00 NAtFMM=   60 NAOKFM=T Big=T
 Integral buffers will be    131072 words long.
 Raffenetti 2 integral format.
 Two-electron integral symmetry is turned on.
 Nuclear repulsion after empirical dispersion term =     6844.7338060188 Hartrees.
 ------------------------------------------------------------------------------
 Polarizable Continuum Model (PCM)
 =================================
 Model                : PCM.
 Atomic radii         : UFF (Universal Force Field).
 Polarization charges : Total charges.
 Charge compensation  : None.
 Solution method      : On-the-fly selection.
 Cavity type          : Scaled VdW (van der Waals Surface) (Alpha=1.100).
 Cavity algorithm     : GePol (No added spheres)
                        Default sphere list used, NSphG=   61.
                        Lebedev-Laikov grids with approx.  5.0 points / Ang**2.
                        Smoothing algorithm: York/Karplus (Gamma=1.0000).
                        Polarization charges: spherical gaussians, with
                                              point-specific exponents (IZeta= 3).
                        Self-potential: point-specific (ISelfS= 7).
                        Self-field    : sphere-specific E.n sum rule (ISelfD= 2).
 Solvent              : TetraHydroFuran, Eps=   7.425700 Eps(inf)=   1.974025
 ------------------------------------------------------------------------------
 One-electron integrals computed using PRISM.
 NBasis=  1649 RedAO= T EigKep=  4.50D-06  NBF=  1649
 NBsUse=  1649 1.00D-06 EigRej= -1.00D+00 NBFU=  1649
 ExpMin= 2.90D-02 ExpMax= 5.65D+05 ExpMxC= 5.46D+03 IAcc=3 IRadAn=         5 AccDes= 0.00D+00
 Harris functional with IExCor= 4639 and IRadAn=       5 diagonalized for initial guess.
 HarFok:  IExCor= 4639 AccDes= 0.00D+00 IRadAn=         5 IDoV= 1 UseB2=F ITyADJ=14
 ICtDFT=  3500011 ScaDFX=  1.000000  1.000000  1.000000  1.000000
 FoFCou: FMM=F IPFlag=           0 FMFlag=      100000 FMFlg1=        2001
         NFxFlg=           0 DoJE=T BraDBF=F KetDBF=T FulRan=T
         wScrn=  0.000000 ICntrl=       500 IOpCl=  0 I1Cent=   200000004 NGrid=           0
         NMat0=    1 NMatS0=      1 NMatT0=    0 NMatD0=    1 NMtDS0=    0 NMtDT0=    0
 Petite list used in FoFCou.
 Requested convergence on RMS density matrix=1.00D-08 within 128 cycles.
 Requested convergence on MAX density matrix=1.00D-06.
 Requested convergence on             energy=1.00D-06.
 No special actions if energy rises.
 Inv3:  Mode=1 IEnd=    63342075.
 Iteration    1 A*A^-1 deviation from unit magnitude is 3.77D-15 for   1021.
 Iteration    1 A*A^-1 deviation from orthogonality  is 2.47D-15 for   3268   2912.
 Iteration    1 A^-1*A deviation from unit magnitude is 3.44D-15 for   2666.
 Iteration    1 A^-1*A deviation from orthogonality  is 2.10D-15 for   3241   2924.
 EnCoef did    22 forward-backward iterations
 EnCoef did    12 forward-backward iterations
 Error on total polarization charges =  0.02259
 SCF Done:  E(RwB97XD) =  -6142.60150711     A.U. after   20 cycles
            NFock= 20  Conv=0.35D-08     -V/T= 2.0025

 **********************************************************************

            Population analysis using the SCF density.

 **********************************************************************

 Orbital symmetries:
       Occupied  (A) (A) (A) (A) (A) (A) (A) (A) (A) (A) (A) (A)
                 (A) (A) (A) (A) (A) (A) (A) (A) (A) (A) (A) (A)
                 (A) (A) (A) (A) (A) (A) (A) (A) (A) (A) (A) (A)
                 (A) (A) (A) (A) (A) (A) (A) (A) (A) (A) (A) (A)
                 (A) (A) (A) (A) (A) (A) (A) (A) (A) (A) (A) (A)
                 (A) (A) (A) (A) (A) (A) (A) (A) (A) (A) (A) (A)
                 (A) (A) (A) (A) (A) (A) (A) (A) (A) (A) (A) (A)
                 (A) (A) (A) (A) (A) (A) (A) (A) (A) (A) (A) (A)
                 (A) (A) (A) (A) (A) (A) (A) (A) (A) (A) (A) (A)
                 (A) (A) (A) (A) (A) (A) (A) (A) (A) (A) (A) (A)
                 (A) (A) (A) (A) (A) (A) (A) (A) (A) (A) (A) (A)
                 (A) (A) (A) (A) (A) (A) (A) (A) (A) (A) (A) (A)
                 (A) (A) (A) (A) (A) (A) (A) (A) (A) (A) (A) (A)
                 (A) (A) (A) (A) (A) (A) (A) (A) (A) (A) (A) (A)
                 (A) (A) (A) (A) (A) (A)
       Virtual   (A) (A) (A) (A) (A) (A) (A) (A) (A) (A) (A) (A)
                 (A) (A) (A) (A) (A) (A) (A) (A) (A) (A) (A) (A)
                 (A) (A) (A) (A) (A) (A) (A) (A) (A) (A) (A) (A)
                 (A) (A) (A) (A) (A) (A) (A) (A) (A) (A) (A) (A)
                 (A) (A) (A) (A) (A) (A) (A) (A) (A) (A) (A) (A)
                 (A) (A) (A) (A) (A) (A) (A) (A) (A) (A) (A) (A)
                 (A) (A) (A) (A) (A) (A) (A) (A) (A) (A) (A) (A)
                 (A) (A) (A) (A) (A) (A) (A) (A) (A) (A) (A) (A)
                 (A) (A) (A) (A) (A) (A) (A) (A) (A) (A) (A) (A)
                 (A) (A) (A) (A) (A) (A) (A) (A) (A) (A) (A) (A)
                 (A) (A) (A) (A) (A) (A) (A) (A) (A) (A) (A) (A)
                 (A) (A) (A) (A) (A) (A) (A) (A) (A) (A) (A) (A)
                 (A) (A) (A) (A) (A) (A) (A) (A) (A) (A) (A) (A)
                 (A) (A) (A) (A) (A) (A) (A) (A) (A) (A) (A) (A)
                 (A) (A) (A) (A) (A) (A) (A) (A) (A) (A) (A) (A)
                 (A) (A) (A) (A) (A) (A) (A) (A) (A) (A) (A) (A)
                 (A) (A) (A) (A) (A) (A) (A) (A) (A) (A) (A) (A)
                 (A) (A) (A) (A) (A) (A) (A) (A) (A) (A) (A) (A)
                 (A) (A) (A) (A) (A) (A) (A) (A) (A) (A) (A) (A)
                 (A) (A) (A) (A) (A) (A) (A) (A) (A) (A) (A) (A)
                 (A) (A) (A) (A) (A) (A) (A) (A) (A) (A) (A) (A)
                 (A) (A) (A) (A) (A) (A) (A) (A) (A) (A) (A) (A)
                 (A) (A) (A) (A) (A) (A) (A) (A) (A) (A) (A) (A)
                 (A) (A) (A) (A) (A) (A) (A) (A) (A) (A) (A) (A)
                 (A) (A) (A) (A) (A) (A) (A) (A) (A) (A) (A) (A)
                 (A) (A) (A) (A) (A) (A) (A) (A) (A) (A) (A) (A)
                 (A) (A) (A) (A) (A) (A) (A) (A) (A) (A) (A) (A)
                 (A) (A) (A) (A) (A) (A) (A) (A) (A) (A) (A) (A)
                 (A) (A) (A) (A) (A) (A) (A) (A) (A) (A) (A) (A)
                 (A) (A) (A) (A) (A) (A) (A) (A) (A) (A) (A) (A)
                 (A) (A) (A) (A) (A) (A) (A) (A) (A) (A) (A) (A)
                 (A) (A) (A) (A) (A) (A) (A) (A) (A) (A) (A) (A)
                 (A) (A) (A) (A) (A) (A) (A) (A) (A) (A) (A) (A)
                 (A) (A) (A) (A) (A) (A) (A) (A) (A) (A) (A) (A)
                 (A) (A) (A) (A) (A) (A) (A) (A) (A) (A) (A) (A)
                 (A) (A) (A) (A) (A) (A) (A) (A) (A) (A) (A) (A)
                 (A) (A) (A) (A) (A) (A) (A) (A) (A) (A) (A) (A)
                 (A) (A) (A) (A) (A) (A) (A) (A) (A) (A) (A) (A)
                 (A) (A) (A) (A) (A) (A) (A) (A) (A) (A) (A) (A)
                 (A) (A) (A) (A) (A) (A) (A) (A) (A) (A) (A) (A)
                 (A) (A) (A) (A) (A) (A) (A) (A) (A) (A) (A) (A)
                 (A) (A) (A) (A) (A) (A) (A) (A) (A) (A) (A) (A)
                 (A) (A) (A) (A) (A) (A) (A) (A) (A) (A) (A) (A)
                 (A) (A) (A) (A) (A) (A) (A) (A) (A) (A) (A) (A)
                 (A) (A) (A) (A) (A) (A) (A) (A) (A) (A) (A) (A)
                 (A) (A) (A) (A) (A) (A) (A) (A) (A) (A) (A) (A)
                 (A) (A) (A) (A) (A) (A) (A) (A) (A) (A) (A) (A)
                 (A) (A) (A) (A) (A) (A) (A) (A) (A) (A) (A) (A)
                 (A) (A) (A) (A) (A) (A) (A) (A) (A) (A) (A) (A)
                 (A) (A) (A) (A) (A) (A) (A) (A) (A) (A) (A) (A)
                 (A) (A) (A) (A) (A) (A) (A) (A) (A) (A) (A) (A)
                 (A) (A) (A) (A) (A) (A) (A) (A) (A) (A) (A) (A)
                 (A) (A) (A) (A) (A) (A) (A) (A) (A) (A) (A) (A)
                 (A) (A) (A) (A) (A) (A) (A) (A) (A) (A) (A) (A)
                 (A) (A) (A) (A) (A) (A) (A) (A) (A) (A) (A) (A)
                 (A) (A) (A) (A) (A) (A) (A) (A) (A) (A) (A) (A)
                 (A) (A) (A) (A) (A) (A) (A) (A) (A) (A) (A) (A)
                 (A) (A) (A) (A) (A) (A) (A) (A) (A) (A) (A) (A)
                 (A) (A) (A) (A) (A) (A) (A) (A) (A) (A) (A) (A)
                 (A) (A) (A) (A) (A) (A) (A) (A) (A) (A) (A) (A)
                 (A) (A) (A) (A) (A) (A) (A) (A) (A) (A) (A) (A)
                 (A) (A) (A) (A) (A) (A) (A) (A) (A) (A) (A) (A)
                 (A) (A) (A) (A) (A) (A) (A) (A) (A) (A) (A) (A)
                 (A) (A) (A) (A) (A) (A) (A) (A) (A) (A) (A) (A)
                 (A) (A) (A) (A) (A) (A) (A) (A) (A) (A) (A) (A)
                 (A) (A) (A) (A) (A) (A) (A) (A) (A) (A) (A) (A)
                 (A) (A) (A) (A) (A) (A) (A) (A) (A) (A) (A) (A)
                 (A) (A) (A) (A) (A) (A) (A) (A) (A) (A) (A) (A)
                 (A) (A) (A) (A) (A) (A) (A) (A) (A) (A) (A) (A)
                 (A) (A) (A) (A) (A) (A) (A) (A) (A) (A) (A) (A)
                 (A) (A) (A) (A) (A) (A) (A) (A) (A) (A) (A) (A)
                 (A) (A) (A) (A) (A) (A) (A) (A) (A) (A) (A) (A)
                 (A) (A) (A) (A) (A) (A) (A) (A) (A) (A) (A) (A)
                 (A) (A) (A) (A) (A) (A) (A) (A) (A) (A) (A) (A)
                 (A) (A) (A) (A) (A) (A) (A) (A) (A) (A) (A) (A)
                 (A) (A) (A) (A) (A) (A) (A) (A) (A) (A) (A) (A)
                 (A) (A) (A) (A) (A) (A) (A) (A) (A) (A) (A) (A)
                 (A) (A) (A) (A) (A) (A) (A) (A) (A) (A) (A) (A)
                 (A) (A) (A) (A) (A) (A) (A) (A) (A) (A) (A) (A)
                 (A) (A) (A) (A) (A) (A) (A) (A) (A) (A) (A) (A)
                 (A) (A) (A) (A) (A) (A) (A) (A) (A) (A) (A) (A)
                 (A) (A) (A) (A) (A) (A) (A) (A) (A) (A) (A) (A)
                 (A) (A) (A) (A) (A) (A) (A) (A) (A) (A) (A) (A)
                 (A) (A) (A) (A) (A) (A) (A) (A) (A) (A) (A) (A)
                 (A) (A) (A) (A) (A) (A) (A) (A) (A) (A) (A) (A)
                 (A) (A) (A) (A) (A) (A) (A) (A) (A) (A) (A) (A)
                 (A) (A) (A) (A) (A) (A) (A) (A) (A) (A) (A) (A)
                 (A) (A) (A) (A) (A) (A) (A) (A) (A) (A) (A) (A)
                 (A) (A) (A) (A) (A) (A) (A) (A) (A) (A) (A) (A)
                 (A) (A) (A) (A) (A) (A) (A) (A) (A) (A) (A) (A)
                 (A) (A) (A) (A) (A) (A) (A) (A) (A) (A) (A) (A)
                 (A) (A) (A) (A) (A) (A) (A) (A) (A) (A) (A) (A)
                 (A) (A) (A) (A) (A) (A) (A) (A) (A) (A) (A) (A)
                 (A) (A) (A) (A) (A) (A) (A) (A) (A) (A) (A) (A)
                 (A) (A) (A) (A) (A) (A) (A) (A) (A) (A) (A) (A)
                 (A) (A) (A) (A) (A) (A) (A) (A) (A) (A) (A) (A)
                 (A) (A) (A) (A) (A) (A) (A) (A) (A) (A) (A) (A)
                 (A) (A) (A) (A) (A) (A) (A) (A) (A) (A) (A) (A)
                 (A) (A) (A) (A) (A) (A) (A) (A) (A) (A) (A) (A)
                 (A) (A) (A) (A) (A) (A) (A) (A) (A) (A) (A) (A)
                 (A) (A) (A) (A) (A) (A) (A) (A) (A) (A) (A) (A)
                 (A) (A) (A) (A) (A) (A) (A) (A) (A) (A) (A) (A)
                 (A) (A) (A) (A) (A) (A) (A) (A) (A) (A) (A) (A)
                 (A) (A) (A) (A) (A) (A) (A) (A) (A) (A) (A) (A)
                 (A) (A) (A) (A) (A) (A) (A) (A) (A) (A) (A) (A)
                 (A) (A) (A) (A) (A) (A) (A) (A) (A) (A) (A) (A)
                 (A) (A) (A) (A) (A) (A) (A) (A) (A) (A) (A) (A)
                 (A) (A) (A) (A) (A) (A) (A) (A) (A) (A) (A) (A)
                 (A) (A) (A) (A) (A) (A) (A) (A) (A) (A) (A) (A)
                 (A) (A) (A) (A) (A) (A) (A) (A) (A) (A) (A) (A)
                 (A) (A) (A) (A) (A) (A) (A) (A) (A) (A) (A) (A)
                 (A) (A) (A) (A) (A) (A) (A) (A) (A) (A) (A) (A)
                 (A) (A) (A) (A) (A) (A) (A) (A) (A) (A) (A) (A)
                 (A) (A) (A) (A) (A) (A) (A) (A) (A) (A) (A) (A)
                 (A) (A) (A) (A) (A) (A) (A) (A) (A) (A) (A) (A)
                 (A) (A) (A) (A) (A) (A) (A) (A) (A) (A) (A) (A)
                 (A) (A) (A) (A) (A) (A) (A) (A) (A) (A) (A) (A)
                 (A) (A) (A) (A) (A) (A) (A) (A) (A) (A) (A) (A)
                 (A) (A) (A) (A) (A) (A) (A) (A) (A) (A) (A) (A)
                 (A) (A) (A) (A) (A) (A) (A) (A) (A) (A) (A) (A)
                 (A) (A) (A) (A) (A) (A) (A) (A) (A) (A) (A) (A)
                 (A) (A) (A) (A) (A) (A) (A) (A) (A) (A) (A) (A)
                 (A) (A) (A) (A) (A) (A) (A) (A) (A) (A) (A)
 The electronic state is 1-A.
 Alpha  occ. eigenvalues -- -483.06082-235.70407 -89.05067 -89.05063 -62.60902
 Alpha  occ. eigenvalues --  -56.39860 -56.39752 -56.39746 -27.47061 -23.52869
 Alpha  occ. eigenvalues --  -23.52733 -23.52627 -19.32494 -19.32485 -19.32260
 Alpha  occ. eigenvalues --  -14.49121 -14.48718 -14.44246 -10.40026 -10.40024
 Alpha  occ. eigenvalues --  -10.39768 -10.35348 -10.34997 -10.34965 -10.34957
 Alpha  occ. eigenvalues --  -10.34759 -10.34757 -10.34496 -10.34178 -10.34052
 Alpha  occ. eigenvalues --  -10.33680 -10.33344 -10.33255 -10.33247 -10.33112
 Alpha  occ. eigenvalues --  -10.32983 -10.32726 -10.31864 -10.31789 -10.31526
 Alpha  occ. eigenvalues --  -10.31482 -10.31427 -10.31386 -10.31306 -10.31229
 Alpha  occ. eigenvalues --  -10.31138 -10.31100 -10.31099 -10.30874 -10.30689
 Alpha  occ. eigenvalues --   -8.74941  -8.08396  -8.08349  -6.56569  -6.56231
 Alpha  occ. eigenvalues --   -6.56212  -6.03261  -6.03217  -6.02901  -6.02852
 Alpha  occ. eigenvalues --   -6.02339  -6.02301  -3.26060  -2.67031  -2.66943
 Alpha  occ. eigenvalues --   -2.66928  -2.66655  -2.66654  -2.11513  -2.11203
 Alpha  occ. eigenvalues --   -2.11082  -1.23692  -1.23625  -1.23304  -1.08670
 Alpha  occ. eigenvalues --   -1.08129  -1.01927  -1.01568  -0.99337  -0.98079
 Alpha  occ. eigenvalues --   -0.95058  -0.93963  -0.92526  -0.91533  -0.90196
 Alpha  occ. eigenvalues --   -0.88603  -0.88387  -0.87119  -0.86779  -0.85916
 Alpha  occ. eigenvalues --   -0.83259  -0.79764  -0.79171  -0.76215  -0.75984
 Alpha  occ. eigenvalues --   -0.75549  -0.75145  -0.74742  -0.72799  -0.72122
 Alpha  occ. eigenvalues --   -0.70593  -0.70154  -0.68166  -0.67421  -0.65555
 Alpha  occ. eigenvalues --   -0.65398  -0.65358  -0.64505  -0.64321  -0.62312
 Alpha  occ. eigenvalues --   -0.61148  -0.60475  -0.59910  -0.59095  -0.58138
 Alpha  occ. eigenvalues --   -0.57692  -0.57631  -0.57304  -0.57079  -0.56690
 Alpha  occ. eigenvalues --   -0.56007  -0.55854  -0.55621  -0.54829  -0.54711
 Alpha  occ. eigenvalues --   -0.54517  -0.54238  -0.53740  -0.53575  -0.53309
 Alpha  occ. eigenvalues --   -0.52923  -0.52495  -0.52392  -0.52027  -0.51927
 Alpha  occ. eigenvalues --   -0.51633  -0.51237  -0.50689  -0.50625  -0.49813
 Alpha  occ. eigenvalues --   -0.49545  -0.48965  -0.48249  -0.48164  -0.47541
 Alpha  occ. eigenvalues --   -0.47225  -0.45451  -0.45274  -0.45056  -0.44666
 Alpha  occ. eigenvalues --   -0.44395  -0.44151  -0.43760  -0.42637  -0.41905
 Alpha  occ. eigenvalues --   -0.40919  -0.40197  -0.39831  -0.39551  -0.38738
 Alpha  occ. eigenvalues --   -0.36941  -0.36723  -0.36107  -0.35521  -0.35338
 Alpha  occ. eigenvalues --   -0.34795  -0.34477  -0.34162  -0.33945  -0.31611
 Alpha  occ. eigenvalues --   -0.31352  -0.30816  -0.30586  -0.30282
 Alpha virt. eigenvalues --   -0.00092   0.00220   0.00704   0.00762   0.01495
 Alpha virt. eigenvalues --    0.02447   0.02812   0.03412   0.03615   0.03814
 Alpha virt. eigenvalues --    0.04528   0.04656   0.05240   0.07070   0.07416
 Alpha virt. eigenvalues --    0.07686   0.07761   0.08588   0.09137   0.09450
 Alpha virt. eigenvalues --    0.09616   0.09985   0.10341   0.10826   0.10888
 Alpha virt. eigenvalues --    0.11553   0.12105   0.12913   0.13299   0.13866
 Alpha virt. eigenvalues --    0.13950   0.14184   0.14525   0.14926   0.15710
 Alpha virt. eigenvalues --    0.16060   0.16437   0.16572   0.16856   0.17317
 Alpha virt. eigenvalues --    0.17713   0.17892   0.18084   0.18511   0.18596
 Alpha virt. eigenvalues --    0.18923   0.19133   0.19333   0.19601   0.19818
 Alpha virt. eigenvalues --    0.20376   0.20604   0.21227   0.21452   0.21876
 Alpha virt. eigenvalues --    0.22408   0.22628   0.22817   0.23523   0.23665
 Alpha virt. eigenvalues --    0.23748   0.24191   0.24907   0.24982   0.25107
 Alpha virt. eigenvalues --    0.25682   0.25939   0.26163   0.26402   0.26900
 Alpha virt. eigenvalues --    0.27103   0.27433   0.27557   0.27709   0.27957
 Alpha virt. eigenvalues --    0.28136   0.28287   0.28529   0.28651   0.29206
 Alpha virt. eigenvalues --    0.29288   0.29701   0.29757   0.30360   0.30372
 Alpha virt. eigenvalues --    0.30534   0.30758   0.30866   0.31041   0.31456
 Alpha virt. eigenvalues --    0.31563   0.31784   0.32168   0.32392   0.32995
 Alpha virt. eigenvalues --    0.33185   0.33461   0.33791   0.33993   0.34083
 Alpha virt. eigenvalues --    0.34253   0.34497   0.34803   0.35322   0.35402
 Alpha virt. eigenvalues --    0.35676   0.35756   0.36269   0.36322   0.36910
 Alpha virt. eigenvalues --    0.37008   0.37166   0.37595   0.37777   0.37975
 Alpha virt. eigenvalues --    0.38221   0.38523   0.38648   0.38871   0.39405
 Alpha virt. eigenvalues --    0.39648   0.39992   0.40086   0.40318   0.40526
 Alpha virt. eigenvalues --    0.40622   0.40988   0.41318   0.41536   0.41669
 Alpha virt. eigenvalues --    0.42007   0.42572   0.42699   0.42845   0.43023
 Alpha virt. eigenvalues --    0.44045   0.44129   0.44486   0.44739   0.45168
 Alpha virt. eigenvalues --    0.45264   0.45714   0.46238   0.46396   0.46514
 Alpha virt. eigenvalues --    0.46653   0.47078   0.47153   0.47395   0.47571
 Alpha virt. eigenvalues --    0.48049   0.48204   0.48376   0.48597   0.48722
 Alpha virt. eigenvalues --    0.48933   0.49002   0.49146   0.49315   0.49512
 Alpha virt. eigenvalues --    0.49839   0.50085   0.50334   0.50709   0.50862
 Alpha virt. eigenvalues --    0.51272   0.51483   0.51841   0.52052   0.52160
 Alpha virt. eigenvalues --    0.52443   0.52720   0.53086   0.53437   0.53689
 Alpha virt. eigenvalues --    0.53730   0.53892   0.54112   0.54685   0.54827
 Alpha virt. eigenvalues --    0.55080   0.55272   0.55484   0.55806   0.55932
 Alpha virt. eigenvalues --    0.56402   0.56571   0.57316   0.57485   0.57770
 Alpha virt. eigenvalues --    0.57850   0.58070   0.58426   0.58685   0.58751
 Alpha virt. eigenvalues --    0.59188   0.59462   0.59629   0.59693   0.60092
 Alpha virt. eigenvalues --    0.60299   0.60845   0.61002   0.61208   0.61399
 Alpha virt. eigenvalues --    0.61811   0.61895   0.62284   0.62656   0.62914
 Alpha virt. eigenvalues --    0.63252   0.63572   0.63884   0.64097   0.64442
 Alpha virt. eigenvalues --    0.64516   0.64769   0.65164   0.65488   0.65842
 Alpha virt. eigenvalues --    0.65937   0.66263   0.66333   0.66916   0.67131
 Alpha virt. eigenvalues --    0.67163   0.67495   0.67930   0.68031   0.68204
 Alpha virt. eigenvalues --    0.69075   0.69109   0.69533   0.69868   0.70380
 Alpha virt. eigenvalues --    0.70533   0.70832   0.71008   0.71401   0.71647
 Alpha virt. eigenvalues --    0.71944   0.72479   0.72863   0.73053   0.73196
 Alpha virt. eigenvalues --    0.73627   0.73768   0.74212   0.74619   0.74743
 Alpha virt. eigenvalues --    0.74851   0.75081   0.75410   0.75790   0.75866
 Alpha virt. eigenvalues --    0.76296   0.76584   0.77017   0.77177   0.77299
 Alpha virt. eigenvalues --    0.77720   0.77939   0.78268   0.78622   0.78699
 Alpha virt. eigenvalues --    0.79143   0.79422   0.79889   0.79965   0.80059
 Alpha virt. eigenvalues --    0.80296   0.81151   0.81186   0.81347   0.81585
 Alpha virt. eigenvalues --    0.81659   0.82055   0.82526   0.83052   0.83350
 Alpha virt. eigenvalues --    0.83457   0.83832   0.84735   0.84792   0.85238
 Alpha virt. eigenvalues --    0.85423   0.85969   0.86373   0.86614   0.86923
 Alpha virt. eigenvalues --    0.86986   0.87003   0.87257   0.88149   0.88267
 Alpha virt. eigenvalues --    0.88572   0.88728   0.89160   0.89504   0.90079
 Alpha virt. eigenvalues --    0.90207   0.90538   0.90738   0.91215   0.91445
 Alpha virt. eigenvalues --    0.91847   0.92123   0.92302   0.92531   0.92858
 Alpha virt. eigenvalues --    0.93294   0.93634   0.94000   0.94171   0.94222
 Alpha virt. eigenvalues --    0.94397   0.95035   0.95277   0.96210   0.96282
 Alpha virt. eigenvalues --    0.96539   0.96618   0.96903   0.97264   0.97681
 Alpha virt. eigenvalues --    0.98031   0.98669   0.98979   0.99294   0.99779
 Alpha virt. eigenvalues --    1.00114   1.00264   1.00670   1.00894   1.01238
 Alpha virt. eigenvalues --    1.01304   1.01857   1.02186   1.02810   1.02900
 Alpha virt. eigenvalues --    1.03343   1.03479   1.04028   1.04559   1.05292
 Alpha virt. eigenvalues --    1.05415   1.05780   1.06418   1.06835   1.07208
 Alpha virt. eigenvalues --    1.07391   1.08300   1.08382   1.08605   1.09169
 Alpha virt. eigenvalues --    1.09611   1.10142   1.10338   1.10511   1.10873
 Alpha virt. eigenvalues --    1.10923   1.11297   1.11848   1.12063   1.12728
 Alpha virt. eigenvalues --    1.12863   1.13299   1.13922   1.14303   1.14471
 Alpha virt. eigenvalues --    1.14946   1.15231   1.15478   1.16182   1.16345
 Alpha virt. eigenvalues --    1.16752   1.16907   1.17227   1.17381   1.18113
 Alpha virt. eigenvalues --    1.18203   1.18730   1.19210   1.19764   1.19922
 Alpha virt. eigenvalues --    1.20085   1.20779   1.21205   1.21644   1.21876
 Alpha virt. eigenvalues --    1.22332   1.22547   1.23121   1.23416   1.23970
 Alpha virt. eigenvalues --    1.24236   1.24459   1.25035   1.25265   1.25394
 Alpha virt. eigenvalues --    1.25780   1.26153   1.26709   1.26887   1.27392
 Alpha virt. eigenvalues --    1.27799   1.28144   1.28416   1.29203   1.29539
 Alpha virt. eigenvalues --    1.29829   1.30228   1.30596   1.30821   1.31281
 Alpha virt. eigenvalues --    1.31598   1.31974   1.32308   1.32853   1.32964
 Alpha virt. eigenvalues --    1.33232   1.33477   1.33906   1.34112   1.34537
 Alpha virt. eigenvalues --    1.34773   1.35288   1.35606   1.35752   1.36464
 Alpha virt. eigenvalues --    1.36855   1.37317   1.37587   1.37777   1.38226
 Alpha virt. eigenvalues --    1.38586   1.38651   1.38970   1.39262   1.39672
 Alpha virt. eigenvalues --    1.40075   1.40367   1.40615   1.41136   1.41332
 Alpha virt. eigenvalues --    1.41584   1.42078   1.42266   1.42444   1.42923
 Alpha virt. eigenvalues --    1.43089   1.44210   1.44493   1.44598   1.45245
 Alpha virt. eigenvalues --    1.45386   1.45671   1.45925   1.46566   1.46889
 Alpha virt. eigenvalues --    1.47097   1.47560   1.47843   1.47906   1.48299
 Alpha virt. eigenvalues --    1.48443   1.48843   1.49119   1.49379   1.49761
 Alpha virt. eigenvalues --    1.50308   1.50623   1.51007   1.51852   1.51992
 Alpha virt. eigenvalues --    1.52420   1.52548   1.52829   1.53188   1.53403
 Alpha virt. eigenvalues --    1.53820   1.54293   1.54324   1.54861   1.55177
 Alpha virt. eigenvalues --    1.55530   1.55957   1.56252   1.56548   1.57499
 Alpha virt. eigenvalues --    1.57713   1.58068   1.58365   1.59044   1.59198
 Alpha virt. eigenvalues --    1.59314   1.59789   1.60070   1.60393   1.60819
 Alpha virt. eigenvalues --    1.61191   1.61982   1.62164   1.62839   1.62946
 Alpha virt. eigenvalues --    1.63175   1.63568   1.63729   1.63960   1.64103
 Alpha virt. eigenvalues --    1.64500   1.64803   1.64832   1.65337   1.65564
 Alpha virt. eigenvalues --    1.65595   1.66344   1.66455   1.67039   1.67470
 Alpha virt. eigenvalues --    1.67527   1.67805   1.68946   1.69170   1.69190
 Alpha virt. eigenvalues --    1.69459   1.69952   1.69993   1.70178   1.70736
 Alpha virt. eigenvalues --    1.71064   1.71216   1.71729   1.72236   1.72341
 Alpha virt. eigenvalues --    1.72751   1.73557   1.73796   1.74023   1.74612
 Alpha virt. eigenvalues --    1.74707   1.75169   1.75451   1.75639   1.75905
 Alpha virt. eigenvalues --    1.76414   1.76579   1.77117   1.77416   1.77758
 Alpha virt. eigenvalues --    1.77950   1.78484   1.78645   1.79087   1.79530
 Alpha virt. eigenvalues --    1.79994   1.80311   1.80545   1.80758   1.81255
 Alpha virt. eigenvalues --    1.82167   1.82344   1.82623   1.82938   1.83257
 Alpha virt. eigenvalues --    1.83539   1.83640   1.83771   1.84222   1.84777
 Alpha virt. eigenvalues --    1.84963   1.85223   1.85692   1.86917   1.86971
 Alpha virt. eigenvalues --    1.87371   1.87681   1.88468   1.88846   1.88976
 Alpha virt. eigenvalues --    1.89882   1.90148   1.90669   1.90741   1.91550
 Alpha virt. eigenvalues --    1.92022   1.92699   1.93222   1.93643   1.94196
 Alpha virt. eigenvalues --    1.94719   1.94958   1.95447   1.95778   1.96030
 Alpha virt. eigenvalues --    1.96532   1.96977   1.97246   1.98274   1.98956
 Alpha virt. eigenvalues --    1.99086   1.99507   2.00124   2.00223   2.01314
 Alpha virt. eigenvalues --    2.01804   2.02056   2.02512   2.02652   2.03071
 Alpha virt. eigenvalues --    2.03509   2.03913   2.04538   2.04881   2.05161
 Alpha virt. eigenvalues --    2.05520   2.06274   2.06709   2.07114   2.07511
 Alpha virt. eigenvalues --    2.08245   2.08519   2.08609   2.09059   2.09445
 Alpha virt. eigenvalues --    2.09793   2.09956   2.10739   2.11038   2.11329
 Alpha virt. eigenvalues --    2.12168   2.12637   2.12867   2.12921   2.13877
 Alpha virt. eigenvalues --    2.13930   2.14419   2.15009   2.15127   2.15524
 Alpha virt. eigenvalues --    2.16145   2.16331   2.16416   2.17473   2.17947
 Alpha virt. eigenvalues --    2.18406   2.18689   2.19848   2.20518   2.20668
 Alpha virt. eigenvalues --    2.21673   2.22196   2.22489   2.23037   2.23285
 Alpha virt. eigenvalues --    2.23843   2.24546   2.24712   2.24790   2.25524
 Alpha virt. eigenvalues --    2.26053   2.26582   2.27535   2.28675   2.28809
 Alpha virt. eigenvalues --    2.29298   2.29678   2.29967   2.30430   2.30993
 Alpha virt. eigenvalues --    2.32864   2.33221   2.33459   2.33905   2.34550
 Alpha virt. eigenvalues --    2.34983   2.35750   2.36905   2.37476   2.37828
 Alpha virt. eigenvalues --    2.38335   2.38514   2.39231   2.39720   2.40305
 Alpha virt. eigenvalues --    2.40772   2.41110   2.41693   2.42896   2.43265
 Alpha virt. eigenvalues --    2.43447   2.43886   2.44145   2.44650   2.45279
 Alpha virt. eigenvalues --    2.45738   2.46270   2.46704   2.47062   2.47304
 Alpha virt. eigenvalues --    2.47584   2.48237   2.48384   2.48447   2.49146
 Alpha virt. eigenvalues --    2.49329   2.50597   2.51345   2.52013   2.52754
 Alpha virt. eigenvalues --    2.52988   2.53434   2.54054   2.54727   2.57707
 Alpha virt. eigenvalues --    2.58076   2.59112   2.59775   2.61265   2.61422
 Alpha virt. eigenvalues --    2.62956   2.63577   2.64022   2.64083   2.64881
 Alpha virt. eigenvalues --    2.65564   2.66393   2.66788   2.68144   2.68716
 Alpha virt. eigenvalues --    2.69205   2.69887   2.70645   2.70935   2.71720
 Alpha virt. eigenvalues --    2.72548   2.73129   2.73713   2.73797   2.74948
 Alpha virt. eigenvalues --    2.75112   2.75461   2.75741   2.76306   2.76682
 Alpha virt. eigenvalues --    2.77414   2.77682   2.77907   2.78120   2.78450
 Alpha virt. eigenvalues --    2.78813   2.79126   2.79546   2.79636   2.80056
 Alpha virt. eigenvalues --    2.80136   2.80865   2.81088   2.81161   2.81697
 Alpha virt. eigenvalues --    2.82498   2.82709   2.83017   2.83636   2.84050
 Alpha virt. eigenvalues --    2.84517   2.85549   2.86158   2.86687   2.86753
 Alpha virt. eigenvalues --    2.87001   2.87782   2.88038   2.88351   2.88664
 Alpha virt. eigenvalues --    2.89264   2.89633   2.89959   2.90550   2.90624
 Alpha virt. eigenvalues --    2.90912   2.91573   2.91960   2.92349   2.92495
 Alpha virt. eigenvalues --    2.92908   2.93204   2.94032   2.94367   2.95127
 Alpha virt. eigenvalues --    2.95607   2.95884   2.96496   2.96716   2.97338
 Alpha virt. eigenvalues --    2.97651   2.97763   2.98326   2.98693   2.99124
 Alpha virt. eigenvalues --    2.99205   2.99603   3.00039   3.00418   3.00705
 Alpha virt. eigenvalues --    3.01034   3.01272   3.01573   3.01800   3.02222
 Alpha virt. eigenvalues --    3.02540   3.02658   3.03040   3.03190   3.03678
 Alpha virt. eigenvalues --    3.03744   3.04676   3.05120   3.05203   3.05602
 Alpha virt. eigenvalues --    3.05707   3.05903   3.06126   3.06453   3.07014
 Alpha virt. eigenvalues --    3.07408   3.07420   3.07996   3.08681   3.08841
 Alpha virt. eigenvalues --    3.09174   3.09424   3.09826   3.10101   3.10517
 Alpha virt. eigenvalues --    3.10773   3.11120   3.11625   3.11869   3.12144
 Alpha virt. eigenvalues --    3.12205   3.12312   3.12527   3.12830   3.13133
 Alpha virt. eigenvalues --    3.13313   3.13691   3.13992   3.14150   3.14566
 Alpha virt. eigenvalues --    3.14968   3.15130   3.15386   3.15766   3.16415
 Alpha virt. eigenvalues --    3.16718   3.17097   3.17138   3.17477   3.17788
 Alpha virt. eigenvalues --    3.18359   3.18445   3.18868   3.19148   3.19604
 Alpha virt. eigenvalues --    3.19864   3.20018   3.20238   3.20381   3.20865
 Alpha virt. eigenvalues --    3.21035   3.21224   3.21227   3.21822   3.22016
 Alpha virt. eigenvalues --    3.22502   3.22595   3.23000   3.23113   3.23364
 Alpha virt. eigenvalues --    3.23618   3.23940   3.24062   3.24122   3.24547
 Alpha virt. eigenvalues --    3.24912   3.25049   3.25373   3.25898   3.26012
 Alpha virt. eigenvalues --    3.26198   3.26889   3.27072   3.27257   3.27416
 Alpha virt. eigenvalues --    3.27842   3.28012   3.28236   3.28835   3.28940
 Alpha virt. eigenvalues --    3.29197   3.29398   3.29582   3.30018   3.30571
 Alpha virt. eigenvalues --    3.30879   3.31421   3.31649   3.31829   3.32196
 Alpha virt. eigenvalues --    3.32543   3.32795   3.33067   3.33571   3.33716
 Alpha virt. eigenvalues --    3.34704   3.35063   3.35293   3.35661   3.36029
 Alpha virt. eigenvalues --    3.36574   3.37099   3.37530   3.37764   3.38154
 Alpha virt. eigenvalues --    3.38669   3.39071   3.39306   3.40009   3.40202
 Alpha virt. eigenvalues --    3.40848   3.41315   3.41436   3.41594   3.42021
 Alpha virt. eigenvalues --    3.42357   3.43017   3.43278   3.43647   3.44068
 Alpha virt. eigenvalues --    3.44184   3.44815   3.45324   3.45471   3.45833
 Alpha virt. eigenvalues --    3.46007   3.46176   3.46796   3.46876   3.47377
 Alpha virt. eigenvalues --    3.47560   3.47755   3.48335   3.48712   3.48941
 Alpha virt. eigenvalues --    3.49271   3.49397   3.49789   3.50128   3.50327
 Alpha virt. eigenvalues --    3.51004   3.51532   3.51786   3.52236   3.52543
 Alpha virt. eigenvalues --    3.52655   3.53595   3.53887   3.54110   3.54297
 Alpha virt. eigenvalues --    3.54643   3.54861   3.55059   3.55212   3.55757
 Alpha virt. eigenvalues --    3.56245   3.56298   3.57004   3.57086   3.57625
 Alpha virt. eigenvalues --    3.57782   3.58095   3.58703   3.59021   3.59201
 Alpha virt. eigenvalues --    3.59961   3.60212   3.61008   3.61192   3.61650
 Alpha virt. eigenvalues --    3.61974   3.62257   3.62733   3.63203   3.63983
 Alpha virt. eigenvalues --    3.64618   3.64746   3.65045   3.65513   3.65894
 Alpha virt. eigenvalues --    3.66617   3.66931   3.67298   3.67809   3.68370
 Alpha virt. eigenvalues --    3.68537   3.68891   3.69102   3.70509   3.71093
 Alpha virt. eigenvalues --    3.71329   3.71651   3.71913   3.72849   3.73196
 Alpha virt. eigenvalues --    3.73838   3.74690   3.74817   3.75224   3.75456
 Alpha virt. eigenvalues --    3.76423   3.76808   3.76951   3.77644   3.77874
 Alpha virt. eigenvalues --    3.78932   3.79438   3.79646   3.79942   3.80753
 Alpha virt. eigenvalues --    3.81167   3.81630   3.82773   3.83401   3.83575
 Alpha virt. eigenvalues --    3.83705   3.84271   3.84297   3.84527   3.85006
 Alpha virt. eigenvalues --    3.85485   3.85860   3.86038   3.86271   3.86573
 Alpha virt. eigenvalues --    3.87107   3.87821   3.88281   3.88385   3.88672
 Alpha virt. eigenvalues --    3.88985   3.89389   3.89639   3.90318   3.90832
 Alpha virt. eigenvalues --    3.91081   3.91341   3.91569   3.91873   3.92295
 Alpha virt. eigenvalues --    3.92610   3.93295   3.93520   3.93812   3.94477
 Alpha virt. eigenvalues --    3.95171   3.95730   3.96021   3.96430   3.96758
 Alpha virt. eigenvalues --    3.97214   3.97792   3.97969   3.99077   3.99349
 Alpha virt. eigenvalues --    3.99909   4.00174   4.00414   4.00839   4.01323
 Alpha virt. eigenvalues --    4.01655   4.01900   4.02717   4.02870   4.04153
 Alpha virt. eigenvalues --    4.04530   4.05043   4.05199   4.05608   4.05904
 Alpha virt. eigenvalues --    4.06485   4.07415   4.07751   4.08427   4.08649
 Alpha virt. eigenvalues --    4.08878   4.09964   4.10247   4.10872   4.11378
 Alpha virt. eigenvalues --    4.11732   4.12059   4.12415   4.13016   4.13670
 Alpha virt. eigenvalues --    4.13827   4.14196   4.14858   4.15418   4.15877
 Alpha virt. eigenvalues --    4.16412   4.17065   4.17501   4.18390   4.19010
 Alpha virt. eigenvalues --    4.19258   4.19625   4.19878   4.20943   4.21490
 Alpha virt. eigenvalues --    4.21820   4.22074   4.22481   4.23392   4.23465
 Alpha virt. eigenvalues --    4.23784   4.24155   4.24630   4.24957   4.25147
 Alpha virt. eigenvalues --    4.25288   4.25593   4.26033   4.26446   4.27206
 Alpha virt. eigenvalues --    4.27390   4.27890   4.28038   4.28795   4.29237
 Alpha virt. eigenvalues --    4.29478   4.29658   4.30474   4.31212   4.32144
 Alpha virt. eigenvalues --    4.32261   4.32779   4.32868   4.33358   4.33884
 Alpha virt. eigenvalues --    4.34149   4.34729   4.35418   4.35604   4.36307
 Alpha virt. eigenvalues --    4.37054   4.37067   4.37529   4.38198   4.38752
 Alpha virt. eigenvalues --    4.39245   4.39993   4.41236   4.41496   4.41671
 Alpha virt. eigenvalues --    4.42326   4.43004   4.43253   4.43307   4.44142
 Alpha virt. eigenvalues --    4.44895   4.45212   4.45551   4.46470   4.47125
 Alpha virt. eigenvalues --    4.47528   4.47815   4.48132   4.48951   4.49415
 Alpha virt. eigenvalues --    4.49481   4.50576   4.50779   4.51358   4.52042
 Alpha virt. eigenvalues --    4.52165   4.53492   4.54835   4.55024   4.55828
 Alpha virt. eigenvalues --    4.56393   4.56747   4.57660   4.58364   4.58882
 Alpha virt. eigenvalues --    4.60276   4.60343   4.60756   4.61134   4.61551
 Alpha virt. eigenvalues --    4.62291   4.62716   4.63908   4.65059   4.65577
 Alpha virt. eigenvalues --    4.65796   4.66683   4.67040   4.68585   4.68704
 Alpha virt. eigenvalues --    4.69752   4.70353   4.70453   4.70918   4.71069
 Alpha virt. eigenvalues --    4.73008   4.74029   4.74331   4.74389   4.75543
 Alpha virt. eigenvalues --    4.76163   4.76809   4.77398   4.78555   4.78849
 Alpha virt. eigenvalues --    4.79155   4.79423   4.80814   4.81053   4.81715
 Alpha virt. eigenvalues --    4.82337   4.82998   4.83813   4.84257   4.85296
 Alpha virt. eigenvalues --    4.85581   4.86222   4.87083   4.87859   4.88940
 Alpha virt. eigenvalues --    4.89790   4.90904   4.91150   4.92074   4.92306
 Alpha virt. eigenvalues --    4.93225   4.93642   4.94084   4.94134   4.94577
 Alpha virt. eigenvalues --    4.95482   4.95805   4.96750   4.97042   4.97099
 Alpha virt. eigenvalues --    4.99174   5.01543   5.01722   5.03646   5.04126
 Alpha virt. eigenvalues --    5.04600   5.05192   5.06503   5.07252   5.09406
 Alpha virt. eigenvalues --    5.10550   5.11208   5.11992   5.12527   5.15537
 Alpha virt. eigenvalues --    5.15654   5.17516   5.17658   5.18224   5.19032
 Alpha virt. eigenvalues --    5.19102   5.19201   5.19228   5.19285   5.19370
 Alpha virt. eigenvalues --    5.19505   5.21243   5.22243   5.22479   5.23321
 Alpha virt. eigenvalues --    5.24371   5.24681   5.25138   5.26245   5.26454
 Alpha virt. eigenvalues --    5.27162   5.27492   5.28235   5.28864   5.28983
 Alpha virt. eigenvalues --    5.29816   5.30415   5.30931   5.31582   5.31713
 Alpha virt. eigenvalues --    5.32484   5.32755   5.32965   5.34922   5.35204
 Alpha virt. eigenvalues --    5.36249   5.37915   5.39957   5.40810   5.41969
 Alpha virt. eigenvalues --    5.42319   5.43038   5.43743   5.44112   5.44724
 Alpha virt. eigenvalues --    5.45258   5.45793   5.46385   5.49305   5.49950
 Alpha virt. eigenvalues --    5.51952   5.52731   5.53456   5.54496   5.55928
 Alpha virt. eigenvalues --    5.57547   5.57821   5.58449   5.59203   5.59274
 Alpha virt. eigenvalues --    5.59510   5.59974   5.61731   5.62869   5.64131
 Alpha virt. eigenvalues --    5.64231   5.65481   5.66022   5.68984   5.69669
 Alpha virt. eigenvalues --    5.70388   5.72754   5.73517   5.75820   5.76535
 Alpha virt. eigenvalues --    5.76981   5.77469   5.78093   5.79235   5.79942
 Alpha virt. eigenvalues --    5.81622   5.82249   5.83539   5.88283   5.89235
 Alpha virt. eigenvalues --    5.92406   5.95426   5.96185   5.96748   6.01600
 Alpha virt. eigenvalues --    6.03492   6.05919   6.06434   6.07530   6.09702
 Alpha virt. eigenvalues --    6.11797   6.18683   6.20638   6.22009   6.25293
 Alpha virt. eigenvalues --    6.27031   6.27785   6.32038   6.32395   6.34156
 Alpha virt. eigenvalues --    6.34891   6.35243   6.36747   6.37661   6.37779
 Alpha virt. eigenvalues --    6.39390   6.40560   6.43195   6.43665   6.43795
 Alpha virt. eigenvalues --    6.44296   6.46490   6.68632   6.70001   6.71449
 Alpha virt. eigenvalues --    6.73264   6.74175   6.76717   6.81966   6.86571
 Alpha virt. eigenvalues --    6.87536   6.87787   6.89495   6.90688   6.92925
 Alpha virt. eigenvalues --    6.95132   6.97186   6.97410   7.02081   7.08233
 Alpha virt. eigenvalues --    7.10003   7.11625   7.17427   7.18266   7.19542
 Alpha virt. eigenvalues --    7.25821   7.26070   7.29197   7.37947   7.41621
 Alpha virt. eigenvalues --    7.44457   7.47707   7.50445   7.52386   7.54588
 Alpha virt. eigenvalues --    7.65976   8.10114   8.11365   8.36418   8.38991
 Alpha virt. eigenvalues --    8.40053   8.74896   8.80035   8.81712   9.07547
 Alpha virt. eigenvalues --    9.22735   9.44807   9.58864   9.64033   9.82227
 Alpha virt. eigenvalues --   20.29210  20.87479  22.50197  22.52158  22.86449
 Alpha virt. eigenvalues --   23.04922  23.06505  23.12420  23.13351  23.13802
 Alpha virt. eigenvalues --   23.16732  23.23986  23.24471  23.25006  23.26155
 Alpha virt. eigenvalues --   23.28134  23.29776  23.31533  23.31854  23.33287
 Alpha virt. eigenvalues --   23.37042  23.37663  23.41361  23.49251  23.50196
 Alpha virt. eigenvalues --   23.58026  23.58973  23.63355  23.70040  23.78545
 Alpha virt. eigenvalues --   23.79939  24.00925  24.04327  24.21257  32.26312
 Alpha virt. eigenvalues --   32.94925  32.98233  43.99903  44.01483  44.03308
          Condensed to atoms (all electrons):
 Mulliken charges:
               1
     1  Mn   0.227341
     2  C    0.163677
     3  O   -0.123476
     4  C    0.192580
     5  O   -0.124584
     6  C    0.008020
     7  N   -0.120540
     8  C   -0.158937
     9  C   -0.057847
    10  C    0.043225
    11  H    0.141395
    12  H    0.141162
    13  N   -0.097443
    14  C   -0.107158
    15  C    0.242345
    16  C   -0.238621
    17  C   -0.067975
    18  C   -0.210653
    19  H    0.133334
    20  H    0.159869
    21  N   -0.111619
    22  C   -0.127535
    23  C   -0.146636
    24  H    0.143464
    25  C    0.007691
    26  H    0.182007
    27  C    0.034209
    28  H    0.168789
    29  H    0.140382
    30  O   -0.141631
    31  S   -0.137957
    32  S   -0.009072
    33  C   -0.018753
    34  C    0.119144
    35  C   -0.185702
    36  C   -0.114716
    37  C   -0.137876
    38  C    0.034807
    39  C   -0.075471
    40  H    0.133855
    41  H    0.141554
    42  H    0.127230
    43  C   -0.097192
    44  C    0.057715
    45  C   -0.147296
    46  C   -0.110360
    47  C   -0.206824
    48  C    0.155883
    49  H    0.126810
    50  H    0.141650
    51  H    0.135096
    52  C    0.050289
    53  H    0.139879
    54  C    0.051980
    55  H    0.116484
    56  H    0.133573
    57  C   -0.173667
    58  C   -0.004292
    59  H    0.102458
    60  H    0.135909
    61  Br  -0.779973
 Sum of Mulliken charges =  -0.00000
 Mulliken charges with hydrogens summed into heavy atoms:
               1
     1  Mn   0.227341
     2  C    0.163677
     3  O   -0.123476
     4  C    0.192580
     5  O   -0.124584
     6  C    0.008020
     7  N   -0.120540
     8  C   -0.017542
     9  C    0.083315
    10  C    0.176798
    13  N   -0.097443
    14  C   -0.107158
    15  C    0.242345
    16  C   -0.105286
    17  C    0.072407
    18  C   -0.050785
    21  N   -0.111619
    22  C    0.015929
    23  C   -0.006757
    25  C    0.189699
    27  C    0.202998
    30  O   -0.141631
    31  S   -0.137957
    32  S   -0.009072
    33  C   -0.018753
    34  C    0.119144
    35  C   -0.051847
    36  C    0.026838
    37  C   -0.010646
    38  C    0.034807
    39  C   -0.075471
    43  C   -0.097192
    44  C    0.057715
    45  C   -0.020487
    46  C    0.031289
    47  C   -0.071728
    48  C    0.155883
    52  C    0.050289
    54  C    0.168464
    57  C   -0.037758
    58  C    0.098167
    61  Br  -0.779973
 Electronic spatial extent (au):  <R**2>=          22410.6570
 Charge=             -0.0000 electrons
 Dipole moment (field-independent basis, Debye):
    X=            -17.2148    Y=              2.0874    Z=             -1.2112  Tot=             17.3831
 Quadrupole moment (field-independent basis, Debye-Ang):
   XX=           -334.1601   YY=           -253.0076   ZZ=           -258.3205
   XY=              2.0645   XZ=              0.5201   YZ=             28.5676
 Traceless Quadrupole moment (field-independent basis, Debye-Ang):
   XX=            -52.3307   YY=             28.8218   ZZ=             23.5089
   XY=              2.0645   XZ=              0.5201   YZ=             28.5676
 Octapole moment (field-independent basis, Debye-Ang**2):
  XXX=           -365.2627  YYY=             27.3832  ZZZ=              1.0995  XYY=            -54.2946
  XXY=           -141.3669  XXZ=             88.3715  XZZ=             -4.8396  YZZ=            -27.7822
  YYZ=             -0.3927  XYZ=            -18.3769
 Hexadecapole moment (field-independent basis, Debye-Ang**3):
 XXXX=         -17789.5359 YYYY=          -7631.3439 ZZZZ=          -5075.6684 XXXY=           -485.6819
 XXXZ=            213.4783 YYYX=             -0.8521 YYYZ=             93.8556 ZZZX=           -140.8601
 ZZZY=            277.8694 XXYY=          -4268.0590 XXZZ=          -3565.4136 YYZZ=          -2139.2387
 XXYZ=            455.4474 YYXZ=            181.7895 ZZXY=           -211.1354
 N-N= 6.844733806019D+03 E-N=-2.824350204273D+04  KE= 6.127360906398D+03
 1\1\GINC-C410-063\SP\RwB97XD\Gen\C32H19Br1Mn1N3O3S2\DMCINTOS\22-Mar-20
 23\0\\# wB97XD Gen SCRF=(Solvent=TetraHydroFuran)\\Anth Prod Calculati
 on\\0,1\Mn,0,-2.075,-1.58743,-1.06171\C,0,-3.08435,-1.32061,-2.55252\O
 ,0,-3.7175,-1.14518,-3.48879\C,0,-2.84661,-3.20234,-0.72789\O,0,-3.328
 74,-4.21583,-0.50724\C,0,-0.81435,-2.37993,-2.06083\N,0,-0.92294,-1.75
 174,0.76321\C,0,-0.7423,-1.73893,3.15414\C,0,0.64656,-1.81416,3.08094\
 C,0,0.40694,-1.87144,0.70632\H,0,-1.25528,-1.69387,4.11501\H,0,1.25788
 ,-1.81731,3.98571\N,0,-5.23372,3.23301,1.57504\C,0,-4.08026,3.20386,1.
 67196\C,0,-2.64604,3.17246,1.784\C,0,-1.91395,4.36482,1.69159\C,0,-0.5
 2554,4.3232,1.77509\C,0,-1.99041,1.9462,1.96382\H,0,-2.43357,5.31397,1
 .55063\H,0,-2.57348,1.02506,2.0076\N,0,-1.18935,0.36941,-1.29163\C,0,-
 1.35249,2.75611,-1.43019\C,0,0.02621,2.8727,-1.57351\H,0,-1.99459,3.63
 675,-1.41318\C,0,-1.48606,-1.69757,1.98173\H,0,-2.57277,-1.60472,2.004
 45\C,0,-1.91818,1.49709,-1.27767\H,0,-2.99136,1.37574,-1.12391\H,0,0.0
 4927,5.24807,1.70137\O,0,-0.0547,-2.9185,-2.73575\S,0,2.53422,0.70493,
 0.78854\S,0,5.65815,0.50243,0.16213\C,0,1.24412,-1.8742,1.82272\C,0,2.
 71905,-1.92294,1.61351\C,0,3.44683,-3.06886,1.94758\C,0,4.81497,-3.140
 8,1.69369\C,0,5.47631,-2.06992,1.09846\C,0,4.77364,-0.90017,0.79924\C,
 0,3.39954,-0.82247,1.05942\H,0,2.92533,-3.91956,2.39094\H,0,5.36876,-4
 .04685,1.94547\H,0,6.54294,-2.13305,0.8743\C,0,3.15191,1.18617,-0.8071
 4\C,0,4.52845,1.11903,-1.06322\C,0,5.04122,1.59405,-2.27257\C,0,4.1852
 1,2.17158,-3.20583\C,0,2.81545,2.226,-2.96062\C,0,2.27571,1.71324,-1.7
 7571\H,0,6.11176,1.51945,-2.47339\H,0,4.58732,2.56178,-4.14233\H,0,2.1
 4221,2.64708,-3.71019\C,0,0.79776,1.71045,-1.58646\H,0,0.49858,3.85254
 ,-1.67044\C,0,0.13024,0.49178,-1.46561\H,0,0.71315,-0.42524,-1.53065\H
 ,0,0.86027,-1.97509,-0.2788\C,0,0.12871,3.1031,1.94944\C,0,-0.60262,1.
 919,2.04446\H,0,-0.08712,0.96522,2.1691\H,0,1.21884,3.07311,2.00792\Br
 ,0,-4.15359,-0.60666,0.19944\\Version=ES64L-G16RevA.03\State=1-A\HF=-6
 142.6015071\RMSD=3.540e-09\Dipole=6.7728203,0.8212336,0.4765144\Quadru
 pole=-38.9065611,21.4282953,17.4782658,-1.5349262,0.3866635,-21.239337
 3\PG=C01 [X(C32H19Br1Mn1N3O3S2)]\\@


 LET US PLACE AT THE END OF EVERY CHAPTER.....THE
 TWO LETTERS USED BY THE ROMAN JUDGES WHEN THEY DID
 NOT UNDERSTAND A PLEADING.
 N. L. -NON LIQUET- IT IS NOT CLEAR.
                                              -- VOLTAIRE
 Job cpu time:       8 days 15 hours 36 minutes  7.7 seconds.
 Elapsed time:       0 days 17 hours 26 minutes 39.3 seconds.
 File lengths (MBytes):  RWF=   1755 Int=      0 D2E=      0 Chk=    159 Scr=      1
 Normal termination of Gaussian 16 at Wed Mar 22 14:32:06 2023.
