 Entering Gaussian System, Link 0=g16
 Initial command:
 /home1/apps/gaussian/16rA.03/g16/l1.exe "/tmp/Gau-30874.inp" -scrdir="/tmp/"
 Entering Link 1 = /home1/apps/gaussian/16rA.03/g16/l1.exe PID=     30876.
  
 Copyright (c) 1988,1990,1992,1993,1995,1998,2003,2009,2016,
            Gaussian, Inc.  All Rights Reserved.
  
 This is part of the Gaussian(R) 16 program.  It is based on
 the Gaussian(R) 09 system (copyright 2009, Gaussian, Inc.),
 the Gaussian(R) 03 system (copyright 2003, Gaussian, Inc.),
 the Gaussian(R) 98 system (copyright 1998, Gaussian, Inc.),
 the Gaussian(R) 94 system (copyright 1995, Gaussian, Inc.),
 the Gaussian 92(TM) system (copyright 1992, Gaussian, Inc.),
 the Gaussian 90(TM) system (copyright 1990, Gaussian, Inc.),
 the Gaussian 88(TM) system (copyright 1988, Gaussian, Inc.),
 the Gaussian 86(TM) system (copyright 1986, Carnegie Mellon
 University), and the Gaussian 82(TM) system (copyright 1983,
 Carnegie Mellon University). Gaussian is a federally registered
 trademark of Gaussian, Inc.
  
 This software contains proprietary and confidential information,
 including trade secrets, belonging to Gaussian, Inc.
  
 This software is provided under written license and may be
 used, copied, transmitted, or stored only in accord with that
 written license.
  
 The following legend is applicable only to US Government
 contracts under FAR:
  
                    RESTRICTED RIGHTS LEGEND
  
 Use, reproduction and disclosure by the US Government is
 subject to restrictions as set forth in subparagraphs (a)
 and (c) of the Commercial Computer Software - Restricted
 Rights clause in FAR 52.227-19.
  
 Gaussian, Inc.
 340 Quinnipiac St., Bldg. 40, Wallingford CT 06492
  
  
 ---------------------------------------------------------------
 Warning -- This program may not be used in any manner that
 competes with the business of Gaussian, Inc. or will provide
 assistance to any competitor of Gaussian, Inc.  The licensee
 of this program is prohibited from giving any competitor of
 Gaussian, Inc. access to this program.  By using this program,
 the user acknowledges that Gaussian, Inc. is engaged in the
 business of creating and licensing software in the field of
 computational chemistry and represents and warrants to the
 licensee that it is not a competitor of Gaussian, Inc. and that
 it will not use this program in any manner prohibited above.
 ---------------------------------------------------------------
  

 Cite this work as:
 Gaussian 16, Revision A.03,
 M. J. Frisch, G. W. Trucks, H. B. Schlegel, G. E. Scuseria, 
 M. A. Robb, J. R. Cheeseman, G. Scalmani, V. Barone, 
 G. A. Petersson, H. Nakatsuji, X. Li, M. Caricato, A. V. Marenich, 
 J. Bloino, B. G. Janesko, R. Gomperts, B. Mennucci, H. P. Hratchian, 
 J. V. Ortiz, A. F. Izmaylov, J. L. Sonnenberg, D. Williams-Young, 
 F. Ding, F. Lipparini, F. Egidi, J. Goings, B. Peng, A. Petrone, 
 T. Henderson, D. Ranasinghe, V. G. Zakrzewski, J. Gao, N. Rega, 
 G. Zheng, W. Liang, M. Hada, M. Ehara, K. Toyota, R. Fukuda, 
 J. Hasegawa, M. Ishida, T. Nakajima, Y. Honda, O. Kitao, H. Nakai, 
 T. Vreven, K. Throssell, J. A. Montgomery, Jr., J. E. Peralta, 
 F. Ogliaro, M. J. Bearpark, J. J. Heyd, E. N. Brothers, K. N. Kudin, 
 V. N. Staroverov, T. A. Keith, R. Kobayashi, J. Normand, 
 K. Raghavachari, A. P. Rendell, J. C. Burant, S. S. Iyengar, 
 J. Tomasi, M. Cossi, J. M. Millam, M. Klene, C. Adamo, R. Cammi, 
 J. W. Ochterski, R. L. Martin, K. Morokuma, O. Farkas, 
 J. B. Foresman, and D. J. Fox, Gaussian, Inc., Wallingford CT, 2016.
 
 ******************************************
 Gaussian 16:  ES64L-G16RevA.03 25-Dec-2016
                22-Oct-2022 
 ******************************************
 %Chk=checkpoint.chk
 %NProcShared=12
 Will use up to   12 processors via shared memory.
 ------------------------------------------------------
 # wB97XD Gen Opt=(QST2) SCRF=(Solvent=TetraHydroFuran)
 ------------------------------------------------------
 1/5=1,18=20,26=3,27=202,38=1/1,3;
 2/9=110,12=2,17=6,18=5,40=1/2;
 3/5=7,11=2,25=1,30=1,70=2201,71=1,72=20,74=-58/1,2,3;
 4//1;
 5/5=2,38=5,53=20/2;
 6/7=2,8=2,9=2,10=2,28=1/1;
 7//1,2,3,16;
 1/5=1,18=20,26=3,27=202/3(2);
 2/9=110/2;
 99//99;
 2/9=110/2;
 3/5=7,6=1,11=2,25=1,30=1,70=2205,71=1,72=20,74=-58,82=7/1,2,3;
 4/5=5,16=3,69=1/1;
 5/5=2,38=5,53=20/2;
 7//1,2,3,16;
 1/5=1,18=20,26=3,27=202/3(-5);
 2/9=110/2;
 6/7=2,8=2,9=2,10=2,19=2,28=1/1;
 99/9=1/99;
 ----------------------------
 Mn Transition State Reactant
 ----------------------------
 Symbolic Z-matrix:
 Charge =  0 Multiplicity = 1
 Mn                    0.        0.        0. 
 C                    -0.09679   1.8323    0.02295 
 C                     0.        0.       -1.82342 
 C                     1.83282   0.       -0.02938 
 Br                    2.02073   2.02073   2.02073 
 N                    -0.04922  -2.15482   0.09332 
 N                    -2.15153  -0.14036   0.09515 
 C                     0.52385  -2.93988  -0.8355 
 C                     0.57609  -4.32182  -0.71618 
 C                     0.03787  -4.93262   0.41495 
 C                    -0.56724  -4.13205   1.38331 
 C                    -0.59422  -2.75751   1.15179 
 C                    -2.76019  -0.33999   1.26803 
 C                    -4.08404  -0.75052   1.40528 
 C                    -2.90821  -0.24504  -1.01025 
 C                    -4.25761  -0.57119  -0.97276 
 C                    -4.8572   -0.85573   0.2508 
 C                    -4.54612  -1.14763   2.76568 
 C                    -1.06072  -4.64508   2.69242 
 C                    -2.36035  -4.39435   3.17469 
 C                    -4.2951   -2.45577   3.22064 
 C                    -2.7088   -4.77698   4.4776 
 C                    -4.6235   -2.81682   4.53378 
 C                    -5.16246  -0.23395   3.6234 
 C                    -0.16193  -5.33835   3.51187 
 C                    -0.5204   -5.73496   4.79711 
 C                    -5.49479  -0.60032   4.92642 
 C                    -5.20842  -1.88092   5.39075 
 C                    -1.78362  -5.43139   5.29359 
 S                    -3.59561  -3.66717   2.11779 
 S                    -4.34059  -4.47249   5.11215 
 H                     1.05087  -4.91025  -1.50139 
 H                     0.08951  -6.01597   0.54182 
 H                    -1.07315  -2.12266   1.89001 
 H                    -2.16282  -0.19695   2.1652 
 H                    -2.4226   -0.06909  -1.96947 
 H                    -4.81913  -0.6322   -1.90505 
 H                    -5.90099  -1.1706    0.30616 
 H                    -5.36522   0.7782    3.26819 
 H                     0.84657  -5.53732   3.14359 
 H                     0.19986  -6.26023   5.42631 
 H                    -5.96589   0.12432   5.59251 
 H                    -5.4428   -2.16193   6.41931 
 H                    -2.05931  -5.70427   6.31399 
 O                     0.06255   0.01915  -2.96537 
 O                     2.97377  -0.00521  -0.04518 
 O                    -0.17883   2.9698    0.0391 
 H                     0.9665   -2.44597  -1.70172 
 N                     0.1205   -0.06435   2.03055 
 C                     0.1757   -0.32041   3.1556 
 C                     0.0988   -0.78664   4.50696 
 C                     1.18058  -0.65782   5.389 
 C                    -1.08395  -1.43608   4.90265 
 C                     1.07101  -1.1882    6.67028 
 H                     2.09302  -0.15307   5.06933 
 C                    -1.1749   -1.96428   6.18414 
 H                    -1.92637  -1.52866   4.21411 
 C                    -0.09853  -1.84109   7.06447 
 H                     1.90634  -1.09472   7.36578 
 H                    -2.08869  -2.47607   6.49182 
 H                    -0.17211  -2.25847   8.07044 
 
 Add virtual bond connecting atoms C2         and Br5        Dist= 5.51D+00.
 Add virtual bond connecting atoms C4         and Br5        Dist= 5.45D+00.
 Add virtual bond connecting atoms N49        and Br5        Dist= 5.33D+00.
 ---------------------------
 Mn Transition State Product
 ---------------------------
 Symbolic Z-matrix:
 Charge =  0 Multiplicity = 1
 Mn                    0.        0.        0. 
 C                    -0.08831   1.81915   0.02694 
 C                     0.        0.       -1.79318 
 C                     1.82129   0.        0.02701 
 Br                    0.21406   0.22525   2.60296 
 N                    -0.00198  -2.15626   0.10267 
 N                    -2.15359  -0.10666   0.10261 
 C                     0.38734  -2.90055  -0.94769 
 C                     0.33894  -4.28645  -0.94857 
 C                    -0.15783  -4.94905   0.17197 
 C                    -0.57167  -4.19114   1.26468 
 C                    -0.44573  -2.80197   1.18369 
 C                    -2.77703  -0.58203   1.18326 
 C                    -4.15855  -0.77451   1.26439 
 C                    -2.91591   0.24739  -0.9473 
 C                    -4.29788   0.13244  -0.94805 
 C                    -4.93564  -0.39652   0.17216 
 C                    -4.73565  -1.36773   2.50277 
 C                    -1.13591  -4.79615   2.50328 
 C                    -2.48294  -4.59586   2.85783 
 C                    -4.47     -2.70335   2.85753 
 C                    -2.9782   -5.11928   4.05963 
 C                    -4.96894  -3.2234    4.05928 
 C                    -5.54655  -0.59398   3.33896 
 C                    -0.32361  -5.56806   3.33979 
 C                    -0.82204  -6.0942    4.52932 
 C                    -6.04809  -1.11734   4.52841 
 C                    -5.74193  -2.42245   4.90321 
 C                    -2.14059  -5.85203   4.90386 
 S                    -3.58496  -3.76369   1.73597 
 S                    -4.6875   -4.9209    4.50034 
 H                     0.67663  -4.83606  -1.82736 
 H                    -0.23113  -6.03846   0.19274 
 H                    -0.69729  -2.18819   2.04804 
 H                    -2.15175  -0.80469   2.04727 
 H                    -2.4021    0.64317  -1.82367 
 H                    -4.86325   0.44411  -1.82647 
 H                    -6.02029  -0.52198   0.19305 
 H                    -5.76345   0.43908   3.05961 
 H                     0.71885  -5.73439   3.0606 
 H                    -0.17222  -6.6814    5.18043 
 H                    -6.66649  -0.49688   5.17925 
 H                    -6.10842  -2.82852   5.84804 
 H                    -2.52842  -6.23768   5.84873 
 O                     0.04791   0.05036  -2.9414 
 O                     2.96474  -0.00968   0.05082 
 O                    -0.15349   2.9608    0.05043 
 H                     0.75715  -2.36822  -1.82434 
 N                    -1.3568   -1.3568    4.0704 
 C                    -1.3568   -1.3568    5.22824 
 C                    -1.35637  -1.35715   6.66748 
 C                    -0.49568  -2.2183    7.36393 
 C                    -2.21748  -0.49612   7.36408 
 C                    -0.5008   -2.21334   8.75559 
 H                     0.17051  -2.88457   6.81359 
 C                    -2.21257  -0.50128   8.75555 
 H                    -2.88343   0.17008   6.81338 
 C                    -1.35664  -1.35737   9.45011 
 H                     0.16761  -2.88199   9.30084 
 H                    -2.88106   0.16714   9.30099 
 H                    -1.35677  -1.35753   10.542 
 
 Add virtual bond connecting atoms N49        and H34        Dist= 4.32D+00.
 Add virtual bond connecting atoms N49        and H35        Dist= 4.24D+00.
 Iteration  1 RMS(Cart)=  0.17838764 RMS(Int)=  0.70320931
 Iteration  2 RMS(Cart)=  0.12090198 RMS(Int)=  0.69415341
 Iteration  3 RMS(Cart)=  0.11203948 RMS(Int)=  0.69027149
 Iteration  4 RMS(Cart)=  0.09974828 RMS(Int)=  0.68887768
 Iteration  5 RMS(Cart)=  0.07510891 RMS(Int)=  0.68869393
 Iteration  6 RMS(Cart)=  0.04019797 RMS(Int)=  0.68379455
 Iteration  7 RMS(Cart)=  0.03705788 RMS(Int)=  0.67847585
 Iteration  8 RMS(Cart)=  0.03485874 RMS(Int)=  0.67299858
 Iteration  9 RMS(Cart)=  0.01902489 RMS(Int)=  0.66888257
 Iteration 10 RMS(Cart)=  0.03467242 RMS(Int)=  0.66428800
 Iteration 11 RMS(Cart)=  0.01269104 RMS(Int)=  0.66091395
 Iteration 12 RMS(Cart)=  0.00825351 RMS(Int)=  0.65818653
 Iteration 13 RMS(Cart)=  0.00753009 RMS(Int)=  0.65590878
 Iteration 14 RMS(Cart)=  0.00696401 RMS(Int)=  0.65398642
 Iteration 15 RMS(Cart)=  0.00628593 RMS(Int)=  0.65234954
 Iteration 16 RMS(Cart)=  0.00562969 RMS(Int)=  0.65095657
 Iteration 17 RMS(Cart)=  0.00499991 RMS(Int)=  0.64977402
 Iteration 18 RMS(Cart)=  0.00462228 RMS(Int)=  0.64874159
 Iteration 19 RMS(Cart)=  0.00426441 RMS(Int)=  0.64782865
 Iteration 20 RMS(Cart)=  0.00394332 RMS(Int)=  0.64701324
 Iteration 21 RMS(Cart)=  0.00376930 RMS(Int)=  0.64626379
 Iteration 22 RMS(Cart)=  0.00364653 RMS(Int)=  0.64556831
 Iteration 23 RMS(Cart)=  0.00355276 RMS(Int)=  0.64491896
 Iteration 24 RMS(Cart)=  0.00347443 RMS(Int)=  0.64431031
 Iteration 25 RMS(Cart)=  0.00340528 RMS(Int)=  0.64373819
 Iteration 26 RMS(Cart)=  0.00334216 RMS(Int)=  0.64319922
 Iteration 27 RMS(Cart)=  0.00328339 RMS(Int)=  0.64269055
 Iteration 28 RMS(Cart)=  0.00322801 RMS(Int)=  0.64220970
 Iteration 29 RMS(Cart)=  0.00317540 RMS(Int)=  0.64175453
 Iteration 30 RMS(Cart)=  0.00312519 RMS(Int)=  0.64132312
 Iteration 31 RMS(Cart)=  0.00307689 RMS(Int)=  0.64091381
 Iteration 32 RMS(Cart)=  0.00303053 RMS(Int)=  0.64052509
 Iteration 33 RMS(Cart)=  0.00298596 RMS(Int)=  0.64015558
 Iteration 34 RMS(Cart)=  0.00294307 RMS(Int)=  0.63980406
 Iteration 35 RMS(Cart)=  0.00290175 RMS(Int)=  0.63946942
 Iteration 36 RMS(Cart)=  0.00286192 RMS(Int)=  0.63915064
 Iteration 37 RMS(Cart)=  0.00282357 RMS(Int)=  0.63884647
 Iteration 38 RMS(Cart)=  0.00278673 RMS(Int)=  0.63855530
 Iteration 39 RMS(Cart)=  0.00275117 RMS(Int)=  0.63827618
 Iteration 40 RMS(Cart)=  0.00271688 RMS(Int)=  0.63800846
 Iteration 41 RMS(Cart)=  0.00268372 RMS(Int)=  0.63775160
 Iteration 42 RMS(Cart)=  0.00265162 RMS(Int)=  0.63750516
 Iteration 43 RMS(Cart)=  0.00262053 RMS(Int)=  0.63726870
 Iteration 44 RMS(Cart)=  0.00259041 RMS(Int)=  0.63704185
 Iteration 45 RMS(Cart)=  0.00256124 RMS(Int)=  0.63682426
 Iteration 46 RMS(Cart)=  0.00253298 RMS(Int)=  0.63661558
 Iteration 47 RMS(Cart)=  0.00250560 RMS(Int)=  0.63641550
 Iteration 48 RMS(Cart)=  0.00247906 RMS(Int)=  0.63622373
 Iteration 49 RMS(Cart)=  0.00245333 RMS(Int)=  0.63603999
 Iteration 50 RMS(Cart)=  0.00242839 RMS(Int)=  0.63586401
 Iteration 51 RMS(Cart)=  0.00240420 RMS(Int)=  0.63569555
 Iteration 52 RMS(Cart)=  0.00238073 RMS(Int)=  0.63553436
 Iteration 53 RMS(Cart)=  0.00235797 RMS(Int)=  0.63538023
 Iteration 54 RMS(Cart)=  0.00233587 RMS(Int)=  0.63523295
 Iteration 55 RMS(Cart)=  0.00231443 RMS(Int)=  0.63509231
 Iteration 56 RMS(Cart)=  0.00229360 RMS(Int)=  0.63495812
 Iteration 57 RMS(Cart)=  0.00227337 RMS(Int)=  0.63483021
 Iteration 58 RMS(Cart)=  0.00225373 RMS(Int)=  0.63470839
 Iteration 59 RMS(Cart)=  0.00223463 RMS(Int)=  0.63459251
 Iteration 60 RMS(Cart)=  0.00221608 RMS(Int)=  0.63448240
 Iteration 61 RMS(Cart)=  0.00219804 RMS(Int)=  0.63437792
 Iteration 62 RMS(Cart)=  0.00218050 RMS(Int)=  0.63427893
 Iteration 63 RMS(Cart)=  0.00216344 RMS(Int)=  0.63418529
 Iteration 64 RMS(Cart)=  0.00214684 RMS(Int)=  0.63409686
 Iteration 65 RMS(Cart)=  0.00213069 RMS(Int)=  0.63401354
 Iteration 66 RMS(Cart)=  0.00211496 RMS(Int)=  0.63393519
 Iteration 67 RMS(Cart)=  0.00209966 RMS(Int)=  0.63386171
 Iteration 68 RMS(Cart)=  0.00208475 RMS(Int)=  0.63379298
 Iteration 69 RMS(Cart)=  0.00207023 RMS(Int)=  0.63372891
 Iteration 70 RMS(Cart)=  0.00205609 RMS(Int)=  0.63366939
 Iteration 71 RMS(Cart)=  0.00204230 RMS(Int)=  0.63361433
 Iteration 72 RMS(Cart)=  0.00202886 RMS(Int)=  0.63356364
 Iteration 73 RMS(Cart)=  0.00201575 RMS(Int)=  0.63351723
 Iteration 74 RMS(Cart)=  0.00200297 RMS(Int)=  0.63347501
 Iteration 75 RMS(Cart)=  0.00199050 RMS(Int)=  0.63343691
 Iteration 76 RMS(Cart)=  0.00197833 RMS(Int)=  0.63340286
 Iteration 77 RMS(Cart)=  0.00196644 RMS(Int)=  0.63337277
 Iteration 78 RMS(Cart)=  0.00195484 RMS(Int)=  0.63334657
 Iteration 79 RMS(Cart)=  0.00194350 RMS(Int)=  0.63332420
 Iteration 80 RMS(Cart)=  0.00193242 RMS(Int)=  0.63330560
 Iteration 81 RMS(Cart)=  0.00192158 RMS(Int)=  0.63329069
 Iteration 82 RMS(Cart)=  0.00191098 RMS(Int)=  0.63327943
 Iteration 83 RMS(Cart)=  0.00190060 RMS(Int)=  0.63327174
 Iteration 84 RMS(Cart)=  0.00189044 RMS(Int)=  0.63326758
 Iteration 85 RMS(Cart)=  0.00188049 RMS(Int)=  0.63326690
 Iteration 86 RMS(Cart)=  0.00187073 RMS(Int)=  0.63326964
 Iteration 87 RMS(Cart)=  0.00186115 RMS(Int)=  0.63327575
 Iteration 88 RMS(Cart)=  0.00185175 RMS(Int)=  0.63328518
 Iteration 89 RMS(Cart)=  0.00184252 RMS(Int)=  0.63329790
 Iteration 90 RMS(Cart)=  0.00183344 RMS(Int)=  0.63331385
 Iteration 91 RMS(Cart)=  0.00182450 RMS(Int)=  0.63333300
 Iteration 92 RMS(Cart)=  0.00181570 RMS(Int)=  0.63335530
 Iteration 93 RMS(Cart)=  0.00180701 RMS(Int)=  0.63338071
 Iteration 94 RMS(Cart)=  0.00179844 RMS(Int)=  0.63340921
 Iteration 95 RMS(Cart)=  0.00178996 RMS(Int)=  0.63344074
 Iteration 96 RMS(Cart)=  0.00178157 RMS(Int)=  0.63347528
 Iteration 97 RMS(Cart)=  0.00177326 RMS(Int)=  0.63351280
 Iteration 98 RMS(Cart)=  0.00176500 RMS(Int)=  0.63355325
 Iteration 99 RMS(Cart)=  0.00175679 RMS(Int)=  0.63359662
 Iteration100 RMS(Cart)=  0.00174862 RMS(Int)=  0.63364286
 New curvilinear step not converged.
 FormGI is forming the generalized inverse of G from B-inverse, IUseBI=4.
 RedQX1 iteration     1 Try  1 RMS(Cart)=  0.45349894 RMS(Int)=  0.67984580 XScale=  8.52369264
 RedQX1 iteration     1 Try  2 RMS(Cart)=  0.45796681 RMS(Int)=  0.64932660 XScale=  4.16054964
 RedQX1 iteration     1 Try  3 RMS(Cart)=  0.48888288 RMS(Int)=  0.63806882 XScale=  2.65762753
 RedQX1 iteration     1 Try  4 RMS(Cart)=  0.61158707 RMS(Int)=  0.64721040 XScale=  1.90211605
 RedQX1 iteration     1 Try  5 RMS(Cart)=  1.01948925 RMS(Int)=  0.69663686 XScale=  1.32710385
 RedQX1 iteration     1 Try  6 RMS(Cart)=  0.86688510 RMS(Int)=  0.73601769 XScale=  1.10711883
 RedQX1 iteration     2 Try  1 RMS(Cart)=  0.17819528 RMS(Int)=  0.73955488 XScale=  1.08241695
 RedQX1 iteration     2 Try  2 RMS(Cart)=  0.22793496 RMS(Int)=  0.75167862 XScale=  1.04125838
 RedQX1 iteration     2 Try  3 RMS(Cart)=  0.32362331 RMS(Int)=  0.78345626 XScale=  0.97083616
 RedQX1 iteration     3 Try  1 RMS(Cart)=  0.19417399 RMS(Int)=  0.76824576 XScale=  1.00102736
 RedQX1 iteration     3 Try  2 RMS(Cart)=  0.25975109 RMS(Int)=  0.80015032 XScale=  0.94146206
 RedQX1 iteration     4 Try  1 RMS(Cart)=  0.20780088 RMS(Int)=  0.79274399 XScale=  0.95398611
 RedQX1 iteration     5 Try  1 RMS(Cart)=  0.04156018 RMS(Int)=  0.77246692 XScale=  0.99210782
 RedQX1 iteration     6 Try  1 RMS(Cart)=  0.00831204 RMS(Int)=  0.76906195 XScale=  0.99926704
 RedQX1 iteration     6 Try  2 RMS(Cart)=  0.00840245 RMS(Int)=  0.76989930 XScale=  0.99747904
 RedQX1 iteration     7 Try  1 RMS(Cart)=  0.00833523 RMS(Int)=  0.76989254 XScale=  0.99749339
 RedQX1 iteration     8 Try  1 RMS(Cart)=  0.00166705 RMS(Int)=  0.76922694 XScale=  0.99891328
 RedQX1 iteration     9 Try  1 RMS(Cart)=  0.00033341 RMS(Int)=  0.76909490 XScale=  0.99919633
 RedQX1 iteration     9 Try  2 RMS(Cart)=  0.00033355 RMS(Int)=  0.76912789 XScale=  0.99912557
 RedQX1 iteration     9 Try  3 RMS(Cart)=  0.00033370 RMS(Int)=  0.76916091 XScale=  0.99905477
 RedQX1 iteration     9 Try  4 RMS(Cart)=  0.00033384 RMS(Int)=  0.76919396 XScale=  0.99898393
 RedQX1 iteration    10 Try  1 RMS(Cart)=  0.00033352 RMS(Int)=  0.76919393 XScale=  0.99898399
 RedQX1 iteration    11 Try  1 RMS(Cart)=  0.00006670 RMS(Int)=  0.76916751 XScale=  0.99904062
 RedQX1 iteration    11 Try  2 RMS(Cart)=  0.00006671 RMS(Int)=  0.76917412 XScale=  0.99902646
 RedQX1 iteration    11 Try  3 RMS(Cart)=  0.00006672 RMS(Int)=  0.76918072 XScale=  0.99901230
 RedQX1 iteration    11 Try  4 RMS(Cart)=  0.00006672 RMS(Int)=  0.76918733 XScale=  0.99899814
 RedQX1 iteration    12 Try  1 RMS(Cart)=  0.00006671 RMS(Int)=  0.76918733 XScale=  0.99899815
 RedQX1 iteration    13 Try  1 RMS(Cart)=  0.00001334 RMS(Int)=  0.76918204 XScale=  0.99900947
 RedQX1 iteration    13 Try  2 RMS(Cart)=  0.00001334 RMS(Int)=  0.76918336 XScale=  0.99900664
 RedQX1 iteration    13 Try  3 RMS(Cart)=  0.00001334 RMS(Int)=  0.76918468 XScale=  0.99900381
 RedQX1 iteration    13 Try  4 RMS(Cart)=  0.00001334 RMS(Int)=  0.76918600 XScale=  0.99900098
 RedQX1 iteration    13 Try  5 RMS(Cart)=  0.00001334 RMS(Int)=  0.76918733 XScale=  0.99899815
 RedQX1 iteration    14 Try  1 RMS(Cart)=  0.00001334 RMS(Int)=  0.76918733 XScale=  0.99899815
 RedQX1 iteration    15 Try  1 RMS(Cart)=  0.00000267 RMS(Int)=  0.76918627 XScale=  0.99900041
 RedQX1 iteration    15 Try  2 RMS(Cart)=  0.00000267 RMS(Int)=  0.76918653 XScale=  0.99899985
 RedQX1 iteration    16 Try  1 RMS(Cart)=  0.00000267 RMS(Int)=  0.76918653 XScale=  0.99899985
 RedQX1 iteration    17 Try  1 RMS(Cart)=  0.00000053 RMS(Int)=  0.76918632 XScale=  0.99900030
 RedQX1 iteration    17 Try  2 RMS(Cart)=  0.00000053 RMS(Int)=  0.76918637 XScale=  0.99900019
 RedQX1 iteration    17 Try  3 RMS(Cart)=  0.00000053 RMS(Int)=  0.76918643 XScale=  0.99900007
 RedQX1 iteration    17 Try  4 RMS(Cart)=  0.00000053 RMS(Int)=  0.76918648 XScale=  0.99899996
 RedQX1 iteration    18 Try  1 RMS(Cart)=  0.00000053 RMS(Int)=  0.76918648 XScale=  0.99899996
 RedQX1 iteration    19 Try  1 RMS(Cart)=  0.00000011 RMS(Int)=  0.76918644 XScale=  0.99900005
 RedQX1 iteration    19 Try  2 RMS(Cart)=  0.00000011 RMS(Int)=  0.76918645 XScale=  0.99900003
 RedQX1 iteration    19 Try  3 RMS(Cart)=  0.00000011 RMS(Int)=  0.76918646 XScale=  0.99900000
 RedQX1 iteration    19 Try  4 RMS(Cart)=  0.00000011 RMS(Int)=  0.76918647 XScale=  0.99899998
 RedQX1 iteration    20 Try  1 RMS(Cart)=  0.00000011 RMS(Int)=  0.76918647 XScale=  0.99899998
 Old curvilinear step not converged, using linear step:
 SCX= 8.57D+00 DXMaxT= 4.94-324 SCLim= 0.00D+00 Fact= 0.00D+00
 RedCar/ORedCr failed for GTrans.
 Error termination via Lnk1e in /home1/apps/gaussian/16rA.03/g16/l101.exe at Sat Oct 22 00:25:13 2022.
 Job cpu time:       0 days  0 hours  0 minutes 16.5 seconds.
 Elapsed time:       0 days  0 hours  0 minutes  2.0 seconds.
 File lengths (MBytes):  RWF=      6 Int=      0 D2E=      0 Chk=      1 Scr=      1
