 Entering Gaussian System, Link 0=g16
 Initial command:
 /home1/apps/gaussian/16rA.03/g16/l1.exe "/tmp/Gau-233083.inp" -scrdir="/tmp/"
 Entering Link 1 = /home1/apps/gaussian/16rA.03/g16/l1.exe PID=    233084.
  
 Copyright (c) 1988,1990,1992,1993,1995,1998,2003,2009,2016,
            Gaussian, Inc.  All Rights Reserved.
  
 This is part of the Gaussian(R) 16 program.  It is based on
 the Gaussian(R) 09 system (copyright 2009, Gaussian, Inc.),
 the Gaussian(R) 03 system (copyright 2003, Gaussian, Inc.),
 the Gaussian(R) 98 system (copyright 1998, Gaussian, Inc.),
 the Gaussian(R) 94 system (copyright 1995, Gaussian, Inc.),
 the Gaussian 92(TM) system (copyright 1992, Gaussian, Inc.),
 the Gaussian 90(TM) system (copyright 1990, Gaussian, Inc.),
 the Gaussian 88(TM) system (copyright 1988, Gaussian, Inc.),
 the Gaussian 86(TM) system (copyright 1986, Carnegie Mellon
 University), and the Gaussian 82(TM) system (copyright 1983,
 Carnegie Mellon University). Gaussian is a federally registered
 trademark of Gaussian, Inc.
  
 This software contains proprietary and confidential information,
 including trade secrets, belonging to Gaussian, Inc.
  
 This software is provided under written license and may be
 used, copied, transmitted, or stored only in accord with that
 written license.
  
 The following legend is applicable only to US Government
 contracts under FAR:
  
                    RESTRICTED RIGHTS LEGEND
  
 Use, reproduction and disclosure by the US Government is
 subject to restrictions as set forth in subparagraphs (a)
 and (c) of the Commercial Computer Software - Restricted
 Rights clause in FAR 52.227-19.
  
 Gaussian, Inc.
 340 Quinnipiac St., Bldg. 40, Wallingford CT 06492
  
  
 ---------------------------------------------------------------
 Warning -- This program may not be used in any manner that
 competes with the business of Gaussian, Inc. or will provide
 assistance to any competitor of Gaussian, Inc.  The licensee
 of this program is prohibited from giving any competitor of
 Gaussian, Inc. access to this program.  By using this program,
 the user acknowledges that Gaussian, Inc. is engaged in the
 business of creating and licensing software in the field of
 computational chemistry and represents and warrants to the
 licensee that it is not a competitor of Gaussian, Inc. and that
 it will not use this program in any manner prohibited above.
 ---------------------------------------------------------------
  

 Cite this work as:
 Gaussian 16, Revision A.03,
 M. J. Frisch, G. W. Trucks, H. B. Schlegel, G. E. Scuseria, 
 M. A. Robb, J. R. Cheeseman, G. Scalmani, V. Barone, 
 G. A. Petersson, H. Nakatsuji, X. Li, M. Caricato, A. V. Marenich, 
 J. Bloino, B. G. Janesko, R. Gomperts, B. Mennucci, H. P. Hratchian, 
 J. V. Ortiz, A. F. Izmaylov, J. L. Sonnenberg, D. Williams-Young, 
 F. Ding, F. Lipparini, F. Egidi, J. Goings, B. Peng, A. Petrone, 
 T. Henderson, D. Ranasinghe, V. G. Zakrzewski, J. Gao, N. Rega, 
 G. Zheng, W. Liang, M. Hada, M. Ehara, K. Toyota, R. Fukuda, 
 J. Hasegawa, M. Ishida, T. Nakajima, Y. Honda, O. Kitao, H. Nakai, 
 T. Vreven, K. Throssell, J. A. Montgomery, Jr., J. E. Peralta, 
 F. Ogliaro, M. J. Bearpark, J. J. Heyd, E. N. Brothers, K. N. Kudin, 
 V. N. Staroverov, T. A. Keith, R. Kobayashi, J. Normand, 
 K. Raghavachari, A. P. Rendell, J. C. Burant, S. S. Iyengar, 
 J. Tomasi, M. Cossi, J. M. Millam, M. Klene, C. Adamo, R. Cammi, 
 J. W. Ochterski, R. L. Martin, K. Morokuma, O. Farkas, 
 J. B. Foresman, and D. J. Fox, Gaussian, Inc., Wallingford CT, 2016.
 
 ******************************************
 Gaussian 16:  ES64L-G16RevA.03 25-Dec-2016
                16-Mar-2023 
 ******************************************
 %NProcShared=12
 Will use up to   12 processors via shared memory.
 %Chk=checkpoint.chk
 -----------------------------------------------
 # wB97XD Gen SCRF=(Solvent=TetraHydroFuran) Opt
 -----------------------------------------------
 1/18=20,19=15,26=3,38=1/1,3;
 2/9=110,12=2,17=6,18=5,40=1/2;
 3/5=7,11=2,25=1,30=1,70=2201,71=1,72=20,74=-58/1,2,3;
 4//1;
 5/5=2,38=5,53=20/2;
 6/7=2,8=2,9=2,10=2,28=1/1;
 7//1,2,3,16;
 1/18=20,19=15,26=3/3(2);
 2/9=110/2;
 99//99;
 2/9=110/2;
 3/5=7,6=1,11=2,25=1,30=1,70=2205,71=1,72=20,74=-58,82=7/1,2,3;
 4/5=5,16=3,69=1/1;
 5/5=2,38=5,53=20/2;
 7//1,2,3,16;
 1/18=20,19=15,26=3/3(-5);
 2/9=110/2;
 6/7=2,8=2,9=2,10=2,19=2,28=1/1;
 99/9=1/99;
 ------------------------
 Thian React Optimization
 ------------------------
 Symbolic Z-matrix:
 Charge =  0 Multiplicity = 1
 Mn                    8.61564   3.04629   14.7607 
 C                     10.21396   3.6436    15.4293 
 O                     11.22487   3.93738   15.86875 
 C                     8.9574    3.75282   13.10526 
 O                     9.15418   4.13703   12.04907 
 C                     9.43671   1.50443   14.25828 
 N                     6.65512   2.40028   14.02027 
 C                     4.51204   2.98077   13.11518 
 C                     4.07227   1.66628   13.24514 
 C                     6.24194   1.1325    14.09169 
 H                     3.86051   3.75926   12.71488 
 H                     3.05462   1.38477   12.96261 
 N                     7.65962   4.72516   15.35325 
 C                     7.13184   5.68196   15.7197 
 C                     6.43175   6.83046   16.22017 
 C                     5.21497   6.63874   16.89319 
 C                     4.54023   7.7451    17.39686 
 C                     6.97479   8.11122   16.04617 
 H                     4.81051   5.63137   17.01619 
 H                     7.93008   8.21543   15.51791 
 N                     8.13012   2.28636   16.76442 
 C                     7.75486   2.72519   19.09142 
 C                     7.32647   1.4164    19.29552 
 H                     7.78496   3.4459    19.91028 
 C                     5.79773   3.30674   13.52061 
 H                     6.15516   4.33457   13.43941 
 C                     8.13683   3.12071   17.81802 
 H                     8.46346   4.14626   17.63765 
 H                     3.59258   7.60985   17.92323 
 O                     9.99675   0.56371   13.91998 
 S                     4.76716  -0.32634   16.66635 
 S                     4.0372   -3.41551   16.9314 
 C                     4.95514   0.71273   13.75023 
 C                     4.5734   -0.71729   13.92778 
 C                     4.24643  -1.48956   12.80812 
 C                     3.91463  -2.83542   12.94052 
 C                     3.90497  -3.43191   14.19774 
 C                     4.18718  -2.66563   15.33083 
 C                     4.52085  -1.31014   15.20396 
 H                     4.27463  -1.02564   11.81896 
 H                     3.67431  -3.42887   12.05548 
 H                     3.66699  -4.49285   14.3069 
 C                     5.8012   -1.40306   17.63494 
 C                     5.46127  -2.75745   17.7591 
 C                     6.20717  -3.60033   18.58593 
 C                     7.26788  -3.08238   19.32238 
 C                     7.61154  -1.73857   19.20186 
 C                     6.90338  -0.88864   18.34489 
 H                     5.94614  -4.65905   18.65724 
 H                     7.84267  -3.73581   19.98261 
 H                     8.45932  -1.33739   19.76288 
 C                     7.32841   0.53481   18.21519 
 H                     6.99261   1.08281   20.28145 
 C                     7.7691    1.01922   16.98175 
 H                     7.83213   0.32673   16.1428 
 H                     6.96115   0.38617   14.42992 
 C                     5.0748    9.02468   17.22955 
 C                     6.28416   9.20635   16.55729 
 H                     6.69646   10.21027   16.43156 
 H                     4.5414    9.89074   17.63006 
 Br                    10.12246   7.28487   14.25958 
 
 Add virtual bond connecting atoms N7         and Mn1        Dist= 4.14D+00.
 Add virtual bond connecting atoms N21        and Mn1        Dist= 4.15D+00.
 Add virtual bond connecting atoms Br61       and H20        Dist= 5.09D+00.

 GradGradGradGradGradGradGradGradGradGradGradGradGradGradGradGradGradGrad
 Berny optimization.
 Initialization pass.
                           ----------------------------
                           !    Initial Parameters    !
                           ! (Angstroms and Degrees)  !
 --------------------------                            --------------------------
 ! Name  Definition              Value          Derivative Info.                !
 --------------------------------------------------------------------------------
 ! R1    R(1,2)                  1.8326         estimate D2E/DX2                !
 ! R2    R(1,4)                  1.8321         estimate D2E/DX2                !
 ! R3    R(1,6)                  1.8177         estimate D2E/DX2                !
 ! R4    R(1,7)                  2.193          estimate D2E/DX2                !
 ! R5    R(1,13)                 2.0208         estimate D2E/DX2                !
 ! R6    R(1,21)                 2.1973         estimate D2E/DX2                !
 ! R7    R(2,3)                  1.1408         estimate D2E/DX2                !
 ! R8    R(4,5)                  1.141          estimate D2E/DX2                !
 ! R9    R(6,30)                 1.1459         estimate D2E/DX2                !
 ! R10   R(7,10)                 1.3353         estimate D2E/DX2                !
 ! R11   R(7,25)                 1.344          estimate D2E/DX2                !
 ! R12   R(8,9)                  1.3922         estimate D2E/DX2                !
 ! R13   R(8,11)                 1.0912         estimate D2E/DX2                !
 ! R14   R(8,25)                 1.387          estimate D2E/DX2                !
 ! R15   R(9,12)                 1.093          estimate D2E/DX2                !
 ! R16   R(9,33)                 1.3942         estimate D2E/DX2                !
 ! R17   R(10,33)                1.3959         estimate D2E/DX2                !
 ! R18   R(10,56)                1.0903         estimate D2E/DX2                !
 ! R19   R(13,14)                1.1525         estimate D2E/DX2                !
 ! R20   R(14,15)                1.4351         estimate D2E/DX2                !
 ! R21   R(15,16)                1.4037         estimate D2E/DX2                !
 ! R22   R(15,18)                1.402          estimate D2E/DX2                !
 ! R23   R(16,17)                1.3903         estimate D2E/DX2                !
 ! R24   R(16,19)                1.0925         estimate D2E/DX2                !
 ! R25   R(17,29)                1.0924         estimate D2E/DX2                !
 ! R26   R(17,57)                1.3968         estimate D2E/DX2                !
 ! R27   R(18,20)                1.0966         estimate D2E/DX2                !
 ! R28   R(18,58)                1.392          estimate D2E/DX2                !
 ! R29   R(20,61)                2.6937         estimate D2E/DX2                !
 ! R30   R(21,27)                1.344          estimate D2E/DX2                !
 ! R31   R(21,54)                1.3354         estimate D2E/DX2                !
 ! R32   R(22,23)                1.3922         estimate D2E/DX2                !
 ! R33   R(22,24)                1.0913         estimate D2E/DX2                !
 ! R34   R(22,27)                1.387          estimate D2E/DX2                !
 ! R35   R(23,52)                1.3944         estimate D2E/DX2                !
 ! R36   R(23,53)                1.0931         estimate D2E/DX2                !
 ! R37   R(25,26)                1.0912         estimate D2E/DX2                !
 ! R38   R(27,28)                1.0913         estimate D2E/DX2                !
 ! R39   R(31,39)                1.7796         estimate D2E/DX2                !
 ! R40   R(31,43)                1.7795         estimate D2E/DX2                !
 ! R41   R(32,38)                1.7739         estimate D2E/DX2                !
 ! R42   R(32,44)                1.7737         estimate D2E/DX2                !
 ! R43   R(33,34)                1.4907         estimate D2E/DX2                !
 ! R44   R(34,35)                1.3989         estimate D2E/DX2                !
 ! R45   R(34,39)                1.4081         estimate D2E/DX2                !
 ! R46   R(35,36)                1.3925         estimate D2E/DX2                !
 ! R47   R(35,40)                1.0929         estimate D2E/DX2                !
 ! R48   R(36,37)                1.3916         estimate D2E/DX2                !
 ! R49   R(36,41)                1.0924         estimate D2E/DX2                !
 ! R50   R(37,38)                1.3967         estimate D2E/DX2                !
 ! R51   R(37,42)                1.0928         estimate D2E/DX2                !
 ! R52   R(38,39)                1.4017         estimate D2E/DX2                !
 ! R53   R(43,44)                1.4019         estimate D2E/DX2                !
 ! R54   R(43,48)                1.4083         estimate D2E/DX2                !
 ! R55   R(44,45)                1.3966         estimate D2E/DX2                !
 ! R56   R(45,46)                1.3913         estimate D2E/DX2                !
 ! R57   R(45,49)                1.0928         estimate D2E/DX2                !
 ! R58   R(46,47)                1.3923         estimate D2E/DX2                !
 ! R59   R(46,50)                1.0924         estimate D2E/DX2                !
 ! R60   R(47,48)                1.3994         estimate D2E/DX2                !
 ! R61   R(47,51)                1.0929         estimate D2E/DX2                !
 ! R62   R(48,52)                1.4912         estimate D2E/DX2                !
 ! R63   R(52,54)                1.3965         estimate D2E/DX2                !
 ! R64   R(54,55)                1.0897         estimate D2E/DX2                !
 ! R65   R(57,58)                1.3955         estimate D2E/DX2                !
 ! R66   R(57,60)                1.0932         estimate D2E/DX2                !
 ! R67   R(58,59)                1.0925         estimate D2E/DX2                !
 ! A1    A(2,1,4)               92.3653         estimate D2E/DX2                !
 ! A2    A(2,1,6)               89.0464         estimate D2E/DX2                !
 ! A3    A(2,1,13)              91.997          estimate D2E/DX2                !
 ! A4    A(2,1,21)              88.438          estimate D2E/DX2                !
 ! A5    A(4,1,6)               89.6046         estimate D2E/DX2                !
 ! A6    A(4,1,7)               88.584          estimate D2E/DX2                !
 ! A7    A(4,1,13)              91.8808         estimate D2E/DX2                !
 ! A8    A(6,1,7)               93.4753         estimate D2E/DX2                !
 ! A9    A(6,1,21)              93.3539         estimate D2E/DX2                !
 ! A10   A(7,1,13)              85.4575         estimate D2E/DX2                !
 ! A11   A(7,1,21)              90.4855         estimate D2E/DX2                !
 ! A12   A(13,1,21)             85.147          estimate D2E/DX2                !
 ! A13   A(1,7,10)             122.5645         estimate D2E/DX2                !
 ! A14   A(1,7,25)             119.8109         estimate D2E/DX2                !
 ! A15   A(10,7,25)            117.5685         estimate D2E/DX2                !
 ! A16   A(9,8,11)             121.2814         estimate D2E/DX2                !
 ! A17   A(9,8,25)             119.1726         estimate D2E/DX2                !
 ! A18   A(11,8,25)            119.54           estimate D2E/DX2                !
 ! A19   A(8,9,12)             120.8744         estimate D2E/DX2                !
 ! A20   A(8,9,33)             118.6564         estimate D2E/DX2                !
 ! A21   A(12,9,33)            120.4685         estimate D2E/DX2                !
 ! A22   A(7,10,33)            123.8933         estimate D2E/DX2                !
 ! A23   A(7,10,56)            117.5412         estimate D2E/DX2                !
 ! A24   A(33,10,56)           118.5635         estimate D2E/DX2                !
 ! A25   A(14,15,16)           118.7357         estimate D2E/DX2                !
 ! A26   A(14,15,18)           119.924          estimate D2E/DX2                !
 ! A27   A(16,15,18)           121.3357         estimate D2E/DX2                !
 ! A28   A(15,16,17)           119.0591         estimate D2E/DX2                !
 ! A29   A(15,16,19)           120.0569         estimate D2E/DX2                !
 ! A30   A(17,16,19)           120.884          estimate D2E/DX2                !
 ! A31   A(16,17,29)           119.8038         estimate D2E/DX2                !
 ! A32   A(16,17,57)           119.9898         estimate D2E/DX2                !
 ! A33   A(29,17,57)           120.2064         estimate D2E/DX2                !
 ! A34   A(15,18,20)           118.9494         estimate D2E/DX2                !
 ! A35   A(15,18,58)           118.7503         estimate D2E/DX2                !
 ! A36   A(20,18,58)           122.2994         estimate D2E/DX2                !
 ! A37   A(18,20,61)           154.3209         estimate D2E/DX2                !
 ! A38   A(1,21,27)            119.9388         estimate D2E/DX2                !
 ! A39   A(1,21,54)            122.4337         estimate D2E/DX2                !
 ! A40   A(27,21,54)           117.5714         estimate D2E/DX2                !
 ! A41   A(23,22,24)           121.2895         estimate D2E/DX2                !
 ! A42   A(23,22,27)           119.1704         estimate D2E/DX2                !
 ! A43   A(24,22,27)           119.5367         estimate D2E/DX2                !
 ! A44   A(22,23,52)           118.7097         estimate D2E/DX2                !
 ! A45   A(22,23,53)           120.8728         estimate D2E/DX2                !
 ! A46   A(52,23,53)           120.4174         estimate D2E/DX2                !
 ! A47   A(7,25,8)             122.7866         estimate D2E/DX2                !
 ! A48   A(7,25,26)            116.9985         estimate D2E/DX2                !
 ! A49   A(8,25,26)            120.2147         estimate D2E/DX2                !
 ! A50   A(21,27,22)           122.7734         estimate D2E/DX2                !
 ! A51   A(21,27,28)           117.0857         estimate D2E/DX2                !
 ! A52   A(22,27,28)           120.1407         estimate D2E/DX2                !
 ! A53   A(39,31,43)           101.1404         estimate D2E/DX2                !
 ! A54   A(38,32,44)           101.3227         estimate D2E/DX2                !
 ! A55   A(9,33,10)            117.8189         estimate D2E/DX2                !
 ! A56   A(9,33,34)            122.4855         estimate D2E/DX2                !
 ! A57   A(10,33,34)           119.6951         estimate D2E/DX2                !
 ! A58   A(33,34,35)           119.6106         estimate D2E/DX2                !
 ! A59   A(33,34,39)           121.4251         estimate D2E/DX2                !
 ! A60   A(35,34,39)           118.9614         estimate D2E/DX2                !
 ! A61   A(34,35,36)           120.8751         estimate D2E/DX2                !
 ! A62   A(34,35,40)           118.949          estimate D2E/DX2                !
 ! A63   A(36,35,40)           120.1641         estimate D2E/DX2                !
 ! A64   A(35,36,37)           120.1229         estimate D2E/DX2                !
 ! A65   A(35,36,41)           120.0321         estimate D2E/DX2                !
 ! A66   A(37,36,41)           119.8398         estimate D2E/DX2                !
 ! A67   A(36,37,38)           119.7596         estimate D2E/DX2                !
 ! A68   A(36,37,42)           120.5252         estimate D2E/DX2                !
 ! A69   A(38,37,42)           119.7114         estimate D2E/DX2                !
 ! A70   A(32,38,37)           118.881          estimate D2E/DX2                !
 ! A71   A(32,38,39)           120.7037         estimate D2E/DX2                !
 ! A72   A(37,38,39)           120.346          estimate D2E/DX2                !
 ! A73   A(31,39,34)           120.4519         estimate D2E/DX2                !
 ! A74   A(31,39,38)           119.5476         estimate D2E/DX2                !
 ! A75   A(34,39,38)           119.8715         estimate D2E/DX2                !
 ! A76   A(31,43,44)           119.4628         estimate D2E/DX2                !
 ! A77   A(31,43,48)           120.5391         estimate D2E/DX2                !
 ! A78   A(44,43,48)           119.8677         estimate D2E/DX2                !
 ! A79   A(32,44,43)           120.7822         estimate D2E/DX2                !
 ! A80   A(32,44,45)           118.7613         estimate D2E/DX2                !
 ! A81   A(43,44,45)           120.3979         estimate D2E/DX2                !
 ! A82   A(44,45,46)           119.7277         estimate D2E/DX2                !
 ! A83   A(44,45,49)           119.7213         estimate D2E/DX2                !
 ! A84   A(46,45,49)           120.5477         estimate D2E/DX2                !
 ! A85   A(45,46,47)           120.1111         estimate D2E/DX2                !
 ! A86   A(45,46,50)           119.8939         estimate D2E/DX2                !
 ! A87   A(47,46,50)           119.9861         estimate D2E/DX2                !
 ! A88   A(46,47,48)           120.9516         estimate D2E/DX2                !
 ! A89   A(46,47,51)           120.089          estimate D2E/DX2                !
 ! A90   A(48,47,51)           118.9444         estimate D2E/DX2                !
 ! A91   A(43,48,47)           118.8747         estimate D2E/DX2                !
 ! A92   A(43,48,52)           121.8629         estimate D2E/DX2                !
 ! A93   A(47,48,52)           119.261          estimate D2E/DX2                !
 ! A94   A(23,52,48)           122.394          estimate D2E/DX2                !
 ! A95   A(23,52,54)           117.7379         estimate D2E/DX2                !
 ! A96   A(48,52,54)           119.8596         estimate D2E/DX2                !
 ! A97   A(21,54,52)           123.932          estimate D2E/DX2                !
 ! A98   A(21,54,55)           117.5227         estimate D2E/DX2                !
 ! A99   A(52,54,55)           118.5437         estimate D2E/DX2                !
 ! A100  A(17,57,58)           120.5713         estimate D2E/DX2                !
 ! A101  A(17,57,60)           119.6788         estimate D2E/DX2                !
 ! A102  A(58,57,60)           119.7498         estimate D2E/DX2                !
 ! A103  A(18,58,57)           120.2937         estimate D2E/DX2                !
 ! A104  A(18,58,59)           119.5673         estimate D2E/DX2                !
 ! A105  A(57,58,59)           120.1387         estimate D2E/DX2                !
 ! A106  L(2,1,7,4,-1)         180.9493         estimate D2E/DX2                !
 ! A107  L(4,1,21,2,-1)        180.8033         estimate D2E/DX2                !
 ! A108  L(6,1,13,2,-1)        181.0435         estimate D2E/DX2                !
 ! A109  L(1,2,3,18,-1)        183.5948         estimate D2E/DX2                !
 ! A110  L(1,4,5,8,-1)         178.6897         estimate D2E/DX2                !
 ! A111  L(1,6,30,10,-1)       182.3857         estimate D2E/DX2                !
 ! A112  L(1,13,14,8,-1)       181.3966         estimate D2E/DX2                !
 ! A113  L(13,14,15,11,-1)     179.2391         estimate D2E/DX2                !
 ! A114  L(2,1,7,4,-2)         182.5155         estimate D2E/DX2                !
 ! A115  L(4,1,21,2,-2)        177.0536         estimate D2E/DX2                !
 ! A116  L(6,1,13,2,-2)        181.5308         estimate D2E/DX2                !
 ! A117  L(1,2,3,18,-2)        177.8266         estimate D2E/DX2                !
 ! A118  L(1,4,5,8,-2)         182.984          estimate D2E/DX2                !
 ! A119  L(1,6,30,10,-2)       178.3342         estimate D2E/DX2                !
 ! A120  L(1,13,14,8,-2)       179.0869         estimate D2E/DX2                !
 ! A121  L(13,14,15,11,-2)     177.0346         estimate D2E/DX2                !
 ! D1    D(4,1,7,10)           125.1861         estimate D2E/DX2                !
 ! D2    D(4,1,7,25)           -57.605          estimate D2E/DX2                !
 ! D3    D(6,1,7,10)            35.6684         estimate D2E/DX2                !
 ! D4    D(6,1,7,25)          -147.1227         estimate D2E/DX2                !
 ! D5    D(13,1,7,10)         -142.8141         estimate D2E/DX2                !
 ! D6    D(13,1,7,25)           34.3949         estimate D2E/DX2                !
 ! D7    D(21,1,7,10)          -57.7213         estimate D2E/DX2                !
 ! D8    D(21,1,7,25)          119.4876         estimate D2E/DX2                !
 ! D9    D(2,1,15,16)         -133.3093         estimate D2E/DX2                !
 ! D10   D(2,1,15,18)           44.4484         estimate D2E/DX2                !
 ! D11   D(4,1,15,16)          134.2201         estimate D2E/DX2                !
 ! D12   D(4,1,15,18)          -48.0223         estimate D2E/DX2                !
 ! D13   D(7,1,15,16)           45.8921         estimate D2E/DX2                !
 ! D14   D(7,1,15,18)         -136.3502         estimate D2E/DX2                !
 ! D15   D(21,1,15,16)         -45.0719         estimate D2E/DX2                !
 ! D16   D(21,1,15,18)         132.6857         estimate D2E/DX2                !
 ! D17   D(2,1,21,27)           56.4211         estimate D2E/DX2                !
 ! D18   D(2,1,21,54)         -126.3704         estimate D2E/DX2                !
 ! D19   D(6,1,21,27)          145.374          estimate D2E/DX2                !
 ! D20   D(6,1,21,54)          -37.4176         estimate D2E/DX2                !
 ! D21   D(7,1,21,27)         -121.1162         estimate D2E/DX2                !
 ! D22   D(7,1,21,54)           56.0923         estimate D2E/DX2                !
 ! D23   D(13,1,21,27)         -35.7166         estimate D2E/DX2                !
 ! D24   D(13,1,21,54)         141.4919         estimate D2E/DX2                !
 ! D25   D(1,7,10,33)          173.524          estimate D2E/DX2                !
 ! D26   D(1,7,10,56)           -7.0004         estimate D2E/DX2                !
 ! D27   D(25,7,10,33)          -3.7441         estimate D2E/DX2                !
 ! D28   D(25,7,10,56)         175.7315         estimate D2E/DX2                !
 ! D29   D(1,7,25,8)          -175.7599         estimate D2E/DX2                !
 ! D30   D(1,7,25,26)            4.3877         estimate D2E/DX2                !
 ! D31   D(10,7,25,8)            1.5867         estimate D2E/DX2                !
 ! D32   D(10,7,25,26)        -178.2657         estimate D2E/DX2                !
 ! D33   D(11,8,9,12)           -0.9612         estimate D2E/DX2                !
 ! D34   D(11,8,9,33)          179.3387         estimate D2E/DX2                !
 ! D35   D(25,8,9,12)          178.1431         estimate D2E/DX2                !
 ! D36   D(25,8,9,33)           -1.557          estimate D2E/DX2                !
 ! D37   D(9,8,25,7)             1.0088         estimate D2E/DX2                !
 ! D38   D(9,8,25,26)         -179.1434         estimate D2E/DX2                !
 ! D39   D(11,8,25,7)         -179.871          estimate D2E/DX2                !
 ! D40   D(11,8,25,26)          -0.0232         estimate D2E/DX2                !
 ! D41   D(8,9,33,10)           -0.3821         estimate D2E/DX2                !
 ! D42   D(8,9,33,34)          179.868          estimate D2E/DX2                !
 ! D43   D(12,9,33,10)         179.9165         estimate D2E/DX2                !
 ! D44   D(12,9,33,34)           0.1666         estimate D2E/DX2                !
 ! D45   D(7,10,33,9)            3.1713         estimate D2E/DX2                !
 ! D46   D(7,10,33,34)        -177.0715         estimate D2E/DX2                !
 ! D47   D(56,10,33,9)        -176.2993         estimate D2E/DX2                !
 ! D48   D(56,10,33,34)          3.4579         estimate D2E/DX2                !
 ! D49   D(14,15,16,17)        179.126          estimate D2E/DX2                !
 ! D50   D(14,15,16,19)         -0.8312         estimate D2E/DX2                !
 ! D51   D(18,15,16,17)         -0.0919         estimate D2E/DX2                !
 ! D52   D(18,15,16,19)        179.9509         estimate D2E/DX2                !
 ! D53   D(14,15,18,20)          0.532          estimate D2E/DX2                !
 ! D54   D(14,15,18,58)       -179.1344         estimate D2E/DX2                !
 ! D55   D(16,15,18,20)        179.7407         estimate D2E/DX2                !
 ! D56   D(16,15,18,58)          0.0743         estimate D2E/DX2                !
 ! D57   D(15,16,17,29)       -179.9637         estimate D2E/DX2                !
 ! D58   D(15,16,17,57)          0.0098         estimate D2E/DX2                !
 ! D59   D(19,16,17,29)         -0.0068         estimate D2E/DX2                !
 ! D60   D(19,16,17,57)        179.9667         estimate D2E/DX2                !
 ! D61   D(16,17,57,58)          0.0885         estimate D2E/DX2                !
 ! D62   D(16,17,57,60)       -179.8302         estimate D2E/DX2                !
 ! D63   D(29,17,57,58)       -179.9381         estimate D2E/DX2                !
 ! D64   D(29,17,57,60)          0.1432         estimate D2E/DX2                !
 ! D65   D(15,18,20,61)         -3.1939         estimate D2E/DX2                !
 ! D66   D(58,18,20,61)        176.4601         estimate D2E/DX2                !
 ! D67   D(15,18,58,57)          0.0251         estimate D2E/DX2                !
 ! D68   D(15,18,58,59)        179.8428         estimate D2E/DX2                !
 ! D69   D(20,18,58,57)       -179.6296         estimate D2E/DX2                !
 ! D70   D(20,18,58,59)          0.1881         estimate D2E/DX2                !
 ! D71   D(1,21,27,22)         175.6299         estimate D2E/DX2                !
 ! D72   D(1,21,27,28)          -4.5457         estimate D2E/DX2                !
 ! D73   D(54,21,27,22)         -1.7122         estimate D2E/DX2                !
 ! D74   D(54,21,27,28)        178.1121         estimate D2E/DX2                !
 ! D75   D(1,21,54,52)        -173.4691         estimate D2E/DX2                !
 ! D76   D(1,21,54,55)           6.9972         estimate D2E/DX2                !
 ! D77   D(27,21,54,52)          3.802          estimate D2E/DX2                !
 ! D78   D(27,21,54,55)       -175.7317         estimate D2E/DX2                !
 ! D79   D(24,22,23,52)       -179.0598         estimate D2E/DX2                !
 ! D80   D(24,22,23,53)          1.0489         estimate D2E/DX2                !
 ! D81   D(27,22,23,52)          1.6181         estimate D2E/DX2                !
 ! D82   D(27,22,23,53)       -178.2733         estimate D2E/DX2                !
 ! D83   D(23,22,27,21)         -0.9401         estimate D2E/DX2                !
 ! D84   D(23,22,27,28)        179.2407         estimate D2E/DX2                !
 ! D85   D(24,22,27,21)        179.7257         estimate D2E/DX2                !
 ! D86   D(24,22,27,28)         -0.0935         estimate D2E/DX2                !
 ! D87   D(22,23,52,48)        179.1964         estimate D2E/DX2                !
 ! D88   D(22,23,52,54)          0.2572         estimate D2E/DX2                !
 ! D89   D(53,23,52,48)         -0.9118         estimate D2E/DX2                !
 ! D90   D(53,23,52,54)       -179.8509         estimate D2E/DX2                !
 ! D91   D(43,31,39,34)       -137.9858         estimate D2E/DX2                !
 ! D92   D(43,31,39,38)         46.1486         estimate D2E/DX2                !
 ! D93   D(39,31,43,44)        -46.3289         estimate D2E/DX2                !
 ! D94   D(39,31,43,48)        137.8275         estimate D2E/DX2                !
 ! D95   D(44,32,38,37)        139.1574         estimate D2E/DX2                !
 ! D96   D(44,32,38,39)        -43.8596         estimate D2E/DX2                !
 ! D97   D(38,32,44,43)         43.6728         estimate D2E/DX2                !
 ! D98   D(38,32,44,45)       -139.099          estimate D2E/DX2                !
 ! D99   D(9,33,34,35)          63.6268         estimate D2E/DX2                !
 ! D100  D(9,33,34,39)        -115.7413         estimate D2E/DX2                !
 ! D101  D(10,33,34,35)       -116.1186         estimate D2E/DX2                !
 ! D102  D(10,33,34,39)         64.5133         estimate D2E/DX2                !
 ! D103  D(33,34,35,36)        178.5788         estimate D2E/DX2                !
 ! D104  D(33,34,35,40)         -0.1751         estimate D2E/DX2                !
 ! D105  D(39,34,35,36)         -2.0374         estimate D2E/DX2                !
 ! D106  D(39,34,35,40)        179.2087         estimate D2E/DX2                !
 ! D107  D(33,34,39,31)          5.5876         estimate D2E/DX2                !
 ! D108  D(33,34,39,38)       -178.5601         estimate D2E/DX2                !
 ! D109  D(35,34,39,31)       -173.7845         estimate D2E/DX2                !
 ! D110  D(35,34,39,38)          2.0677         estimate D2E/DX2                !
 ! D111  D(34,35,36,37)         -0.0222         estimate D2E/DX2                !
 ! D112  D(34,35,36,41)       -179.1978         estimate D2E/DX2                !
 ! D113  D(40,35,36,37)        178.7166         estimate D2E/DX2                !
 ! D114  D(40,35,36,41)         -0.459          estimate D2E/DX2                !
 ! D115  D(35,36,37,38)          2.0578         estimate D2E/DX2                !
 ! D116  D(35,36,37,42)       -178.6506         estimate D2E/DX2                !
 ! D117  D(41,36,37,38)       -178.765          estimate D2E/DX2                !
 ! D118  D(41,36,37,42)          0.5266         estimate D2E/DX2                !
 ! D119  D(36,37,38,32)        174.9832         estimate D2E/DX2                !
 ! D120  D(36,37,38,39)         -2.0109         estimate D2E/DX2                !
 ! D121  D(42,37,38,32)         -4.3142         estimate D2E/DX2                !
 ! D122  D(42,37,38,39)        178.6917         estimate D2E/DX2                !
 ! D123  D(32,38,39,31)         -1.1138         estimate D2E/DX2                !
 ! D124  D(32,38,39,34)       -177.0037         estimate D2E/DX2                !
 ! D125  D(37,38,39,31)        175.8249         estimate D2E/DX2                !
 ! D126  D(37,38,39,34)         -0.065          estimate D2E/DX2                !
 ! D127  D(31,43,44,32)          1.4799         estimate D2E/DX2                !
 ! D128  D(31,43,44,45)       -175.7029         estimate D2E/DX2                !
 ! D129  D(48,43,44,32)        177.3518         estimate D2E/DX2                !
 ! D130  D(48,43,44,45)          0.169          estimate D2E/DX2                !
 ! D131  D(31,43,48,47)        173.5912         estimate D2E/DX2                !
 ! D132  D(31,43,48,52)         -5.9821         estimate D2E/DX2                !
 ! D133  D(44,43,48,47)         -2.2356         estimate D2E/DX2                !
 ! D134  D(44,43,48,52)        178.1911         estimate D2E/DX2                !
 ! D135  D(32,44,45,46)       -175.225          estimate D2E/DX2                !
 ! D136  D(32,44,45,49)          4.1245         estimate D2E/DX2                !
 ! D137  D(43,44,45,46)          2.0141         estimate D2E/DX2                !
 ! D138  D(43,44,45,49)       -178.6364         estimate D2E/DX2                !
 ! D139  D(44,45,46,47)         -2.099          estimate D2E/DX2                !
 ! D140  D(44,45,46,50)        178.9864         estimate D2E/DX2                !
 ! D141  D(49,45,46,47)        178.557          estimate D2E/DX2                !
 ! D142  D(49,45,46,50)         -0.3576         estimate D2E/DX2                !
 ! D143  D(45,46,47,48)         -0.0054         estimate D2E/DX2                !
 ! D144  D(45,46,47,51)       -178.5796         estimate D2E/DX2                !
 ! D145  D(50,46,47,48)        178.9083         estimate D2E/DX2                !
 ! D146  D(50,46,47,51)          0.334          estimate D2E/DX2                !
 ! D147  D(46,47,48,43)          2.1695         estimate D2E/DX2                !
 ! D148  D(46,47,48,52)       -178.246          estimate D2E/DX2                !
 ! D149  D(51,47,48,43)       -179.2402         estimate D2E/DX2                !
 ! D150  D(51,47,48,52)          0.3443         estimate D2E/DX2                !
 ! D151  D(43,48,52,23)        118.0827         estimate D2E/DX2                !
 ! D152  D(43,48,52,54)        -62.9999         estimate D2E/DX2                !
 ! D153  D(47,48,52,23)        -61.489          estimate D2E/DX2                !
 ! D154  D(47,48,52,54)        117.4284         estimate D2E/DX2                !
 ! D155  D(23,52,54,21)         -3.103          estimate D2E/DX2                !
 ! D156  D(23,52,54,55)        176.4263         estimate D2E/DX2                !
 ! D157  D(48,52,54,21)        177.9299         estimate D2E/DX2                !
 ! D158  D(48,52,54,55)         -2.5409         estimate D2E/DX2                !
 ! D159  D(17,57,58,18)         -0.1065         estimate D2E/DX2                !
 ! D160  D(17,57,58,59)       -179.9232         estimate D2E/DX2                !
 ! D161  D(60,57,58,18)        179.8122         estimate D2E/DX2                !
 ! D162  D(60,57,58,59)         -0.0045         estimate D2E/DX2                !
 --------------------------------------------------------------------------------
 Trust Radius=3.00D-01 FncErr=1.00D-07 GrdErr=1.00D-06 EigMax=2.50D+02 EigMin=1.00D-04
 Number of steps in this run=    360 maximum allowed number of steps=    366.
 GradGradGradGradGradGradGradGradGradGradGradGradGradGradGradGradGradGrad

 Stoichiometry    C32H19BrMnN3O3S2
 Framework group  C1[X(C32H19BrMnN3O3S2)]
 Deg. of freedom   177
 Full point group                 C1      NOp   1
 Largest Abelian subgroup         C1      NOp   1
 Largest concise Abelian subgroup C1      NOp   1
                         Standard orientation:                         
 ---------------------------------------------------------------------
 Center     Atomic      Atomic             Coordinates (Angstroms)
 Number     Number       Type             X           Y           Z
 ---------------------------------------------------------------------
      1         25           0       -1.425915   -0.395378   -1.446270
      2          6           0       -2.435960    0.696538   -2.516773
      3          8           0       -2.994215    1.400816   -3.219404
      4          6           0       -2.398851   -1.876875   -1.909975
      5          8           0       -2.950266   -2.829644   -2.210054
      6          6           0       -0.316739   -0.698704   -2.853984
      7          7           0       -0.258496   -1.655701   -0.083215
      8          6           0       -0.197468   -3.090543    1.836806
      9          6           0        1.193977   -3.120110    1.802664
     10          6           0        1.073403   -1.733140   -0.139193
     11          1           0       -0.757079   -3.630832    2.602120
     12          1           0        1.761810   -3.674867    2.553993
     13          7           0       -2.607579   -0.038101    0.153636
     14          6           0       -3.283257    0.197800    1.057033
     15          6           0       -4.064905    0.521279    2.216351
     16          6           0       -3.400360    0.834676    3.412358
     17          6           0       -4.150634    1.166954    4.534710
     18          6           0       -5.464409    0.535483    2.134563
     19          1           0       -2.308781    0.816306    3.452836
     20          1           0       -5.942813    0.288297    1.179298
     21          7           0       -0.313490    1.380962   -0.786532
     22          6           0       -0.320383    3.530775    0.274860
     23          6           0        1.070835    3.575789    0.250525
     24          1           0       -0.906461    4.346521    0.701392
     25          6           0       -0.881275   -2.343803    0.888948
     26          1           0       -1.971350   -2.297377    0.908377
     27          6           0       -0.969967    2.419361   -0.241552
     28          1           0       -2.059546    2.361973   -0.219305
     29          1           0       -3.645967    1.413540    5.471677
     30          8           0        0.336530   -0.898350   -3.773999
     31         16           0        3.236960    0.306114    1.307357
     32         16           0        6.401232    0.279876    0.943025
     33          6           0        1.852992   -2.421160    0.792217
     34          6           0        3.338921   -2.392366    0.676542
     35          6           0        4.035897   -3.579275    0.426678
     36          6           0        5.421079   -3.578145    0.284529
     37          6           0        6.132954   -2.387070    0.389794
     38          6           0        5.458073   -1.199504    0.681262
     39          6           0        4.063920   -1.194553    0.826466
     40          1           0        3.474004   -4.510970    0.323344
     41          1           0        5.950084   -4.510973    0.076625
     42          1           0        7.217625   -2.375198    0.257600
     43          6           0        4.016469    1.488658    0.230010
     44          6           0        5.411358    1.479429    0.090183
     45          6           0        6.050931    2.453962   -0.679022
     46          6           0        5.302001    3.463615   -1.275199
     47          6           0        3.916213    3.477074   -1.141590
     48          6           0        3.253877    2.483924   -0.411348
     49          1           0        7.136662    2.423238   -0.798834
     50          1           0        5.801280    4.236695   -1.863698
     51          1           0        3.326280    4.257153   -1.629323
     52          6           0        1.765433    2.512720   -0.325434
     53          1           0        1.612051    4.425248    0.675160
     54          6           0        1.017955    1.458057   -0.853822
     55          1           0        1.544270    0.648930   -1.359464
     56          1           0        1.572977   -1.233405   -0.969465
     57          6           0       -5.545421    1.185264    4.461787
     58          6           0       -6.198011    0.870321    3.269129
     59          1           0       -7.289284    0.888088    3.219685
     60          1           0       -6.130252    1.449955    5.346597
     61         35           0       -5.952001   -0.355000   -1.436420
 ---------------------------------------------------------------------
 Rotational constants (GHZ):           0.1096447           0.0388940           0.0383705
 General basis read from cards:  (5D, 7F)
 There are   800 symmetry adapted cartesian basis functions of A   symmetry.
 There are   749 symmetry adapted basis functions of A   symmetry.
   749 basis functions,  1349 primitive gaussians,   800 cartesian basis functions
   174 alpha electrons      174 beta electrons
       nuclear repulsion energy      6413.5367577174 Hartrees.
 NAtoms=   61 NActive=   61 NUniq=   61 SFac= 1.00D+00 NAtFMM=   60 NAOKFM=T Big=T
 Integral buffers will be    131072 words long.
 Raffenetti 2 integral format.
 Two-electron integral symmetry is turned on.
 Nuclear repulsion after empirical dispersion term =     6413.4759259486 Hartrees.
 ------------------------------------------------------------------------------
 Polarizable Continuum Model (PCM)
 =================================
 Model                : PCM.
 Atomic radii         : UFF (Universal Force Field).
 Polarization charges : Total charges.
 Charge compensation  : None.
 Solution method      : On-the-fly selection.
 Cavity type          : Scaled VdW (van der Waals Surface) (Alpha=1.100).
 Cavity algorithm     : GePol (No added spheres)
                        Default sphere list used, NSphG=   61.
                        Lebedev-Laikov grids with approx.  5.0 points / Ang**2.
                        Smoothing algorithm: York/Karplus (Gamma=1.0000).
                        Polarization charges: spherical gaussians, with
                                              point-specific exponents (IZeta= 3).
                        Self-potential: point-specific (ISelfS= 7).
                        Self-field    : sphere-specific E.n sum rule (ISelfD= 2).
 1st derivatives      : Analytical E(r).r(x)/FMM algorithm (CHGder, D1EAlg=3).
                        Cavity 1st derivative terms included.
 Solvent              : TetraHydroFuran, Eps=   7.425700 Eps(inf)=   1.974025
 ------------------------------------------------------------------------------
 One-electron integrals computed using PRISM.
 PrsmSu:  requested number of processors reduced to:  11 ShMem   1 Linda.
 NBasis=   749 RedAO= T EigKep=  2.26D-04  NBF=   749
 NBsUse=   749 1.00D-06 EigRej= -1.00D+00 NBFU=   749
 ExpMin= 3.93D-02 ExpMax= 2.77D+05 ExpMxC= 1.70D+04 IAcc=3 IRadAn=         5 AccDes= 0.00D+00
 Harris functional with IExCor= 4639 and IRadAn=       5 diagonalized for initial guess.
 HarFok:  IExCor= 4639 AccDes= 0.00D+00 IRadAn=         5 IDoV= 1 UseB2=F ITyADJ=14
 ICtDFT=  3500011 ScaDFX=  1.000000  1.000000  1.000000  1.000000
 FoFCou: FMM=F IPFlag=           0 FMFlag=      100000 FMFlg1=        2001
         NFxFlg=           0 DoJE=T BraDBF=F KetDBF=T FulRan=T
         wScrn=  0.000000 ICntrl=       500 IOpCl=  0 I1Cent=   200000004 NGrid=           0
         NMat0=    1 NMatS0=      1 NMatT0=    0 NMatD0=    1 NMtDS0=    0 NMtDT0=    0
 Petite list used in FoFCou.
 Requested convergence on RMS density matrix=1.00D-08 within 128 cycles.
 Requested convergence on MAX density matrix=1.00D-06.
 Requested convergence on             energy=1.00D-06.
 No special actions if energy rises.
 CoulSu:  requested number of processors reduced to:   8 ShMem   1 Linda.
 Inv3:  Mode=1 IEnd=    72353763.
 Iteration    1 A*A^-1 deviation from unit magnitude is 4.00D-15 for    364.
 Iteration    1 A*A^-1 deviation from orthogonality  is 1.92D-15 for   4448   2631.
 Iteration    1 A^-1*A deviation from unit magnitude is 4.00D-15 for    364.
 Iteration    1 A^-1*A deviation from orthogonality  is 2.78D-15 for   2499   1478.
 CoulSu:  requested number of processors reduced to:   8 ShMem   1 Linda.
 CoulSu:  requested number of processors reduced to:   8 ShMem   1 Linda.
 Error on total polarization charges =  0.02364
 SCF Done:  E(RwB97XD) =  -6140.25769064     A.U. after   18 cycles
            NFock= 18  Conv=0.78D-08     -V/T= 2.0038

 **********************************************************************

            Population analysis using the SCF density.

 **********************************************************************

 Orbital symmetries:
       Occupied  (A) (A) (A) (A) (A) (A) (A) (A) (A) (A) (A) (A)
                 (A) (A) (A) (A) (A) (A) (A) (A) (A) (A) (A) (A)
                 (A) (A) (A) (A) (A) (A) (A) (A) (A) (A) (A) (A)
                 (A) (A) (A) (A) (A) (A) (A) (A) (A) (A) (A) (A)
                 (A) (A) (A) (A) (A) (A) (A) (A) (A) (A) (A) (A)
                 (A) (A) (A) (A) (A) (A) (A) (A) (A) (A) (A) (A)
                 (A) (A) (A) (A) (A) (A) (A) (A) (A) (A) (A) (A)
                 (A) (A) (A) (A) (A) (A) (A) (A) (A) (A) (A) (A)
                 (A) (A) (A) (A) (A) (A) (A) (A) (A) (A) (A) (A)
                 (A) (A) (A) (A) (A) (A) (A) (A) (A) (A) (A) (A)
                 (A) (A) (A) (A) (A) (A) (A) (A) (A) (A) (A) (A)
                 (A) (A) (A) (A) (A) (A) (A) (A) (A) (A) (A) (A)
                 (A) (A) (A) (A) (A) (A) (A) (A) (A) (A) (A) (A)
                 (A) (A) (A) (A) (A) (A) (A) (A) (A) (A) (A) (A)
                 (A) (A) (A) (A) (A) (A)
       Virtual   (A) (A) (A) (A) (A) (A) (A) (A) (A) (A) (A) (A)
                 (A) (A) (A) (A) (A) (A) (A) (A) (A) (A) (A) (A)
                 (A) (A) (A) (A) (A) (A) (A) (A) (A) (A) (A) (A)
                 (A) (A) (A) (A) (A) (A) (A) (A) (A) (A) (A) (A)
                 (A) (A) (A) (A) (A) (A) (A) (A) (A) (A) (A) (A)
                 (A) (A) (A) (A) (A) (A) (A) (A) (A) (A) (A) (A)
                 (A) (A) (A) (A) (A) (A) (A) (A) (A) (A) (A) (A)
                 (A) (A) (A) (A) (A) (A) (A) (A) (A) (A) (A) (A)
                 (A) (A) (A) (A) (A) (A) (A) (A) (A) (A) (A) (A)
                 (A) (A) (A) (A) (A) (A) (A) (A) (A) (A) (A) (A)
                 (A) (A) (A) (A) (A) (A) (A) (A) (A) (A) (A) (A)
                 (A) (A) (A) (A) (A) (A) (A) (A) (A) (A) (A) (A)
                 (A) (A) (A) (A) (A) (A) (A) (A) (A) (A) (A) (A)
                 (A) (A) (A) (A) (A) (A) (A) (A) (A) (A) (A) (A)
                 (A) (A) (A) (A) (A) (A) (A) (A) (A) (A) (A) (A)
                 (A) (A) (A) (A) (A) (A) (A) (A) (A) (A) (A) (A)
                 (A) (A) (A) (A) (A) (A) (A) (A) (A) (A) (A) (A)
                 (A) (A) (A) (A) (A) (A) (A) (A) (A) (A) (A) (A)
                 (A) (A) (A) (A) (A) (A) (A) (A) (A) (A) (A) (A)
                 (A) (A) (A) (A) (A) (A) (A) (A) (A) (A) (A) (A)
                 (A) (A) (A) (A) (A) (A) (A) (A) (A) (A) (A) (A)
                 (A) (A) (A) (A) (A) (A) (A) (A) (A) (A) (A) (A)
                 (A) (A) (A) (A) (A) (A) (A) (A) (A) (A) (A) (A)
                 (A) (A) (A) (A) (A) (A) (A) (A) (A) (A) (A) (A)
                 (A) (A) (A) (A) (A) (A) (A) (A) (A) (A) (A) (A)
                 (A) (A) (A) (A) (A) (A) (A) (A) (A) (A) (A) (A)
                 (A) (A) (A) (A) (A) (A) (A) (A) (A) (A) (A) (A)
                 (A) (A) (A) (A) (A) (A) (A) (A) (A) (A) (A) (A)
                 (A) (A) (A) (A) (A) (A) (A) (A) (A) (A) (A) (A)
                 (A) (A) (A) (A) (A) (A) (A) (A) (A) (A) (A) (A)
                 (A) (A) (A) (A) (A) (A) (A) (A) (A) (A) (A) (A)
                 (A) (A) (A) (A) (A) (A) (A) (A) (A) (A) (A) (A)
                 (A) (A) (A) (A) (A) (A) (A) (A) (A) (A) (A) (A)
                 (A) (A) (A) (A) (A) (A) (A) (A) (A) (A) (A) (A)
                 (A) (A) (A) (A) (A) (A) (A) (A) (A) (A) (A) (A)
                 (A) (A) (A) (A) (A) (A) (A) (A) (A) (A) (A) (A)
                 (A) (A) (A) (A) (A) (A) (A) (A) (A) (A) (A) (A)
                 (A) (A) (A) (A) (A) (A) (A) (A) (A) (A) (A) (A)
                 (A) (A) (A) (A) (A) (A) (A) (A) (A) (A) (A) (A)
                 (A) (A) (A) (A) (A) (A) (A) (A) (A) (A) (A) (A)
                 (A) (A) (A) (A) (A) (A) (A) (A) (A) (A) (A) (A)
                 (A) (A) (A) (A) (A) (A) (A) (A) (A) (A) (A) (A)
                 (A) (A) (A) (A) (A) (A) (A) (A) (A) (A) (A) (A)
                 (A) (A) (A) (A) (A) (A) (A) (A) (A) (A) (A) (A)
                 (A) (A) (A) (A) (A) (A) (A) (A) (A) (A) (A) (A)
                 (A) (A) (A) (A) (A) (A) (A) (A) (A) (A) (A) (A)
                 (A) (A) (A) (A) (A) (A) (A) (A) (A) (A) (A) (A)
                 (A) (A) (A) (A) (A) (A) (A) (A) (A) (A) (A)
 The electronic state is 1-A.
 Alpha  occ. eigenvalues -- -482.95055-235.70587 -89.04432 -89.03998 -62.53114
 Alpha  occ. eigenvalues --  -56.33668 -56.33667 -56.33662 -27.47577 -23.53394
 Alpha  occ. eigenvalues --  -23.53137 -23.53117 -19.34600 -19.34343 -19.34301
 Alpha  occ. eigenvalues --  -14.50813 -14.50805 -14.49552 -10.42103 -10.41933
 Alpha  occ. eigenvalues --  -10.41909 -10.38868 -10.37290 -10.37276 -10.36741
 Alpha  occ. eigenvalues --  -10.36732 -10.36216 -10.36199 -10.35822 -10.35816
 Alpha  occ. eigenvalues --  -10.35799 -10.34868 -10.34854 -10.34757 -10.34752
 Alpha  occ. eigenvalues --  -10.34657 -10.34629 -10.33730 -10.33562 -10.33557
 Alpha  occ. eigenvalues --  -10.33007 -10.33005 -10.32834 -10.32800 -10.32799
 Alpha  occ. eigenvalues --  -10.32765 -10.32591 -10.32590 -10.32451 -10.32158
 Alpha  occ. eigenvalues --   -8.69879  -8.09506  -8.09149  -6.51561  -6.51559
 Alpha  occ. eigenvalues --   -6.51537  -6.04970  -6.04609  -6.04577  -6.04214
 Alpha  occ. eigenvalues --   -6.03944  -6.03583  -3.26791  -2.62073  -2.62072
 Alpha  occ. eigenvalues --   -2.62055  -2.62054  -2.62048  -2.12391  -2.11797
 Alpha  occ. eigenvalues --   -2.11775  -1.23466  -1.23295  -1.23256  -1.08620
 Alpha  occ. eigenvalues --   -1.08324  -1.04915  -1.01512  -0.99079  -0.98161
 Alpha  occ. eigenvalues --   -0.95023  -0.93871  -0.92476  -0.91593  -0.90188
 Alpha  occ. eigenvalues --   -0.88761  -0.88505  -0.86779  -0.86381  -0.85810
 Alpha  occ. eigenvalues --   -0.83219  -0.79152  -0.76375  -0.76325  -0.75682
 Alpha  occ. eigenvalues --   -0.75410  -0.75138  -0.74321  -0.72735  -0.71997
 Alpha  occ. eigenvalues --   -0.70720  -0.70253  -0.68541  -0.67401  -0.65835
 Alpha  occ. eigenvalues --   -0.65225  -0.65122  -0.65084  -0.64746  -0.62810
 Alpha  occ. eigenvalues --   -0.62002  -0.61387  -0.60399  -0.59955  -0.58654
 Alpha  occ. eigenvalues --   -0.58513  -0.58149  -0.57585  -0.57485  -0.57431
 Alpha  occ. eigenvalues --   -0.57082  -0.56869  -0.56359  -0.55680  -0.55267
 Alpha  occ. eigenvalues --   -0.55044  -0.54782  -0.54346  -0.54305  -0.54013
 Alpha  occ. eigenvalues --   -0.53858  -0.53165  -0.52932  -0.52880  -0.52563
 Alpha  occ. eigenvalues --   -0.52458  -0.52399  -0.51971  -0.51740  -0.50890
 Alpha  occ. eigenvalues --   -0.50658  -0.49955  -0.49410  -0.48766  -0.48583
 Alpha  occ. eigenvalues --   -0.47951  -0.47627  -0.46379  -0.46051  -0.45610
 Alpha  occ. eigenvalues --   -0.45023  -0.44638  -0.44532  -0.44108  -0.42187
 Alpha  occ. eigenvalues --   -0.41568  -0.40655  -0.40413  -0.40194  -0.38802
 Alpha  occ. eigenvalues --   -0.37735  -0.37332  -0.36184  -0.35862  -0.35607
 Alpha  occ. eigenvalues --   -0.34725  -0.32669  -0.32342  -0.32134  -0.31670
 Alpha  occ. eigenvalues --   -0.30538  -0.29425  -0.29349  -0.29237
 Alpha virt. eigenvalues --   -0.00580  -0.00069   0.00030   0.00385   0.01508
 Alpha virt. eigenvalues --    0.02275   0.02932   0.03359   0.03923   0.03929
 Alpha virt. eigenvalues --    0.04115   0.04583   0.05065   0.06930   0.06972
 Alpha virt. eigenvalues --    0.08213   0.08963   0.09010   0.10139   0.10162
 Alpha virt. eigenvalues --    0.10768   0.11039   0.12804   0.12981   0.13327
 Alpha virt. eigenvalues --    0.13697   0.14176   0.14392   0.15203   0.15390
 Alpha virt. eigenvalues --    0.15443   0.15899   0.16088   0.16761   0.17643
 Alpha virt. eigenvalues --    0.18209   0.18783   0.18840   0.19577   0.19583
 Alpha virt. eigenvalues --    0.20363   0.20432   0.20566   0.21090   0.21463
 Alpha virt. eigenvalues --    0.21721   0.22081   0.22985   0.23018   0.23330
 Alpha virt. eigenvalues --    0.23406   0.24938   0.25110   0.25675   0.26255
 Alpha virt. eigenvalues --    0.26335   0.27696   0.28024   0.28150   0.28190
 Alpha virt. eigenvalues --    0.28534   0.30462   0.31307   0.31330   0.31959
 Alpha virt. eigenvalues --    0.31983   0.32728   0.32788   0.33223   0.33335
 Alpha virt. eigenvalues --    0.33808   0.34934   0.35200   0.35354   0.35525
 Alpha virt. eigenvalues --    0.36064   0.36402   0.36486   0.37305   0.37509
 Alpha virt. eigenvalues --    0.37943   0.38422   0.38704   0.39053   0.39524
 Alpha virt. eigenvalues --    0.39969   0.40905   0.41605   0.42055   0.42236
 Alpha virt. eigenvalues --    0.42294   0.42932   0.43282   0.44717   0.45019
 Alpha virt. eigenvalues --    0.45336   0.46066   0.46166   0.46783   0.47770
 Alpha virt. eigenvalues --    0.47964   0.48103   0.48473   0.48672   0.48831
 Alpha virt. eigenvalues --    0.49361   0.49478   0.50469   0.50927   0.51287
 Alpha virt. eigenvalues --    0.51752   0.52210   0.52338   0.52658   0.52729
 Alpha virt. eigenvalues --    0.52795   0.53560   0.53683   0.54137   0.54576
 Alpha virt. eigenvalues --    0.55021   0.55048   0.55179   0.55604   0.55677
 Alpha virt. eigenvalues --    0.56088   0.56515   0.56991   0.57421   0.58107
 Alpha virt. eigenvalues --    0.58274   0.58327   0.58911   0.59230   0.59967
 Alpha virt. eigenvalues --    0.60536   0.60763   0.61132   0.61503   0.62228
 Alpha virt. eigenvalues --    0.62563   0.62728   0.63511   0.63754   0.64012
 Alpha virt. eigenvalues --    0.64518   0.65038   0.65160   0.66174   0.66267
 Alpha virt. eigenvalues --    0.66785   0.67437   0.67552   0.67698   0.68025
 Alpha virt. eigenvalues --    0.68391   0.68877   0.69513   0.70016   0.70166
 Alpha virt. eigenvalues --    0.70265   0.71042   0.71292   0.71329   0.72107
 Alpha virt. eigenvalues --    0.72139   0.72185   0.72602   0.72933   0.73141
 Alpha virt. eigenvalues --    0.73301   0.73407   0.73548   0.74057   0.74738
 Alpha virt. eigenvalues --    0.74805   0.75326   0.75478   0.75890   0.76267
 Alpha virt. eigenvalues --    0.76649   0.76731   0.76917   0.77526   0.77634
 Alpha virt. eigenvalues --    0.78386   0.78668   0.78863   0.78918   0.79321
 Alpha virt. eigenvalues --    0.79818   0.79985   0.80708   0.80894   0.81037
 Alpha virt. eigenvalues --    0.81458   0.81871   0.82603   0.82665   0.82811
 Alpha virt. eigenvalues --    0.83151   0.83241   0.83412   0.83847   0.84038
 Alpha virt. eigenvalues --    0.84788   0.84953   0.85273   0.85355   0.86224
 Alpha virt. eigenvalues --    0.86334   0.86692   0.87199   0.87453   0.88242
 Alpha virt. eigenvalues --    0.88326   0.88506   0.89135   0.89332   0.89340
 Alpha virt. eigenvalues --    0.89800   0.90083   0.90403   0.90927   0.91497
 Alpha virt. eigenvalues --    0.91593   0.91791   0.92307   0.93096   0.93670
 Alpha virt. eigenvalues --    0.93988   0.94906   0.95479   0.95834   0.95946
 Alpha virt. eigenvalues --    0.96722   0.97839   0.98129   0.98917   0.99908
 Alpha virt. eigenvalues --    1.00390   1.00519   1.01153   1.03187   1.03363
 Alpha virt. eigenvalues --    1.04684   1.05611   1.06523   1.07821   1.08000
 Alpha virt. eigenvalues --    1.08176   1.08844   1.09375   1.09762   1.10009
 Alpha virt. eigenvalues --    1.11760   1.11896   1.12476   1.13339   1.13764
 Alpha virt. eigenvalues --    1.14353   1.14599   1.14851   1.15675   1.17203
 Alpha virt. eigenvalues --    1.17807   1.18410   1.19311   1.19829   1.21019
 Alpha virt. eigenvalues --    1.21326   1.22022   1.24059   1.24459   1.24632
 Alpha virt. eigenvalues --    1.26399   1.26419   1.26796   1.27558   1.28176
 Alpha virt. eigenvalues --    1.28348   1.28779   1.29157   1.29211   1.29510
 Alpha virt. eigenvalues --    1.29762   1.30520   1.30969   1.31191   1.31543
 Alpha virt. eigenvalues --    1.32298   1.32574   1.32951   1.33881   1.34116
 Alpha virt. eigenvalues --    1.34561   1.34936   1.35746   1.36031   1.36122
 Alpha virt. eigenvalues --    1.36460   1.36580   1.37314   1.38053   1.38208
 Alpha virt. eigenvalues --    1.38528   1.39237   1.40384   1.41507   1.43464
 Alpha virt. eigenvalues --    1.43644   1.45033   1.45887   1.47778   1.49389
 Alpha virt. eigenvalues --    1.49667   1.49992   1.52146   1.52459   1.54414
 Alpha virt. eigenvalues --    1.56558   1.57429   1.58520   1.59904   1.61068
 Alpha virt. eigenvalues --    1.62832   1.62975   1.65360   1.65457   1.65839
 Alpha virt. eigenvalues --    1.65974   1.67363   1.67678   1.68205   1.69281
 Alpha virt. eigenvalues --    1.69394   1.71491   1.72101   1.72385   1.72940
 Alpha virt. eigenvalues --    1.73228   1.73596   1.74393   1.75010   1.75757
 Alpha virt. eigenvalues --    1.75945   1.76330   1.76572   1.76973   1.77283
 Alpha virt. eigenvalues --    1.77471   1.78199   1.78257   1.78621   1.79269
 Alpha virt. eigenvalues --    1.79459   1.79946   1.80065   1.80259   1.81037
 Alpha virt. eigenvalues --    1.81338   1.81729   1.81783   1.82304   1.82834
 Alpha virt. eigenvalues --    1.82980   1.83207   1.83651   1.84416   1.84686
 Alpha virt. eigenvalues --    1.84797   1.85541   1.86755   1.87788   1.88144
 Alpha virt. eigenvalues --    1.88360   1.88457   1.88947   1.89345   1.89789
 Alpha virt. eigenvalues --    1.89997   1.91209   1.91459   1.91526   1.91790
 Alpha virt. eigenvalues --    1.93178   1.93830   1.94275   1.94561   1.96388
 Alpha virt. eigenvalues --    1.97766   1.97882   1.99098   1.99694   1.99924
 Alpha virt. eigenvalues --    2.00497   2.01258   2.01356   2.01798   2.01866
 Alpha virt. eigenvalues --    2.02161   2.02867   2.03003   2.03243   2.04686
 Alpha virt. eigenvalues --    2.05200   2.05370   2.05492   2.06301   2.06547
 Alpha virt. eigenvalues --    2.06769   2.08170   2.08285   2.09124   2.10056
 Alpha virt. eigenvalues --    2.10338   2.10838   2.11630   2.12362   2.14873
 Alpha virt. eigenvalues --    2.15384   2.16501   2.16923   2.17934   2.18228
 Alpha virt. eigenvalues --    2.18426   2.19010   2.19540   2.19757   2.20820
 Alpha virt. eigenvalues --    2.21779   2.22044   2.23261   2.23422   2.23828
 Alpha virt. eigenvalues --    2.25845   2.26470   2.29429   2.29802   2.29939
 Alpha virt. eigenvalues --    2.30402   2.30847   2.31089   2.31290   2.32508
 Alpha virt. eigenvalues --    2.32848   2.34067   2.34711   2.34751   2.35335
 Alpha virt. eigenvalues --    2.36992   2.37159   2.37351   2.37896   2.37960
 Alpha virt. eigenvalues --    2.38448   2.38865   2.39203   2.39404   2.40477
 Alpha virt. eigenvalues --    2.40989   2.41677   2.42814   2.43096   2.45308
 Alpha virt. eigenvalues --    2.46057   2.47364   2.48914   2.49271   2.49395
 Alpha virt. eigenvalues --    2.52387   2.52581   2.55691   2.55795   2.57896
 Alpha virt. eigenvalues --    2.58477   2.59303   2.59820   2.61898   2.65222
 Alpha virt. eigenvalues --    2.67016   2.67222   2.67752   2.67902   2.68172
 Alpha virt. eigenvalues --    2.69084   2.69256   2.69417   2.69990   2.70035
 Alpha virt. eigenvalues --    2.70174   2.70497   2.70673   2.70846   2.71207
 Alpha virt. eigenvalues --    2.71978   2.75568   2.76439   2.76469   2.78959
 Alpha virt. eigenvalues --    2.79000   2.79643   2.79907   2.80726   2.81614
 Alpha virt. eigenvalues --    2.82694   2.83638   2.84776   2.85561   2.85808
 Alpha virt. eigenvalues --    2.86919   2.87104   2.88856   2.89743   2.91687
 Alpha virt. eigenvalues --    2.92041   2.92791   2.95783   2.98239   2.98805
 Alpha virt. eigenvalues --    2.99963   3.01714   3.03064   3.03794   3.04219
 Alpha virt. eigenvalues --    3.04299   3.06087   3.06946   3.08113   3.09570
 Alpha virt. eigenvalues --    3.10012   3.14607   3.15137   3.16729   3.19499
 Alpha virt. eigenvalues --    3.19585   3.21545   3.22463   3.22804   3.23235
 Alpha virt. eigenvalues --    3.24271   3.24755   3.30065   3.30140   3.32963
 Alpha virt. eigenvalues --    3.37067   3.38529   3.39337   3.46511   3.50801
 Alpha virt. eigenvalues --    3.51216   3.53127   3.56581   3.57148   3.58202
 Alpha virt. eigenvalues --    3.60810   3.61179   3.62097   3.63531   3.64016
 Alpha virt. eigenvalues --    3.65991   3.69345   3.69641   3.69906   3.75666
 Alpha virt. eigenvalues --    3.76421   3.77254   3.78837   3.79910   3.81363
 Alpha virt. eigenvalues --    3.90765   3.92085   3.97378   4.04703   4.07399
          Condensed to atoms (all electrons):
 Mulliken charges:
               1
     1  Mn  -0.721335
     2  C    0.362877
     3  O   -0.038958
     4  C    0.362035
     5  O   -0.039784
     6  C    0.316746
     7  N   -0.216625
     8  C   -0.040275
     9  C    0.067720
    10  C    0.156476
    11  H    0.066112
    12  H    0.059038
    13  N    0.119907
    14  C   -0.002480
    15  C   -0.171510
    16  C    0.021602
    17  C   -0.026814
    18  C    0.039137
    19  H    0.048217
    20  H    0.075353
    21  N   -0.216331
    22  C   -0.040659
    23  C    0.064682
    24  H    0.066251
    25  C    0.106613
    26  H    0.080460
    27  C    0.105097
    28  H    0.080870
    29  H    0.052513
    30  O   -0.057818
    31  S    0.093131
    32  S    0.090685
    33  C   -0.100041
    34  C   -0.004997
    35  C   -0.016002
    36  C   -0.017939
    37  C   -0.004382
    38  C   -0.084746
    39  C   -0.046763
    40  H    0.041299
    41  H    0.053073
    42  H    0.043363
    43  C   -0.048739
    44  C   -0.084620
    45  C   -0.003707
    46  C   -0.017825
    47  C   -0.017778
    48  C   -0.001512
    49  H    0.043465
    50  H    0.053070
    51  H    0.041458
    52  C   -0.097491
    53  H    0.059101
    54  C    0.162322
    55  H    0.040982
    56  H    0.047372
    57  C   -0.001559
    58  C   -0.020846
    59  H    0.053610
    60  H    0.055540
    61  Br  -0.988647
 Sum of Mulliken charges =  -0.00000
 Mulliken charges with hydrogens summed into heavy atoms:
               1
     1  Mn  -0.721335
     2  C    0.362877
     3  O   -0.038958
     4  C    0.362035
     5  O   -0.039784
     6  C    0.316746
     7  N   -0.216625
     8  C    0.025838
     9  C    0.126758
    10  C    0.203848
    13  N    0.119907
    14  C   -0.002480
    15  C   -0.171510
    16  C    0.069819
    17  C    0.025699
    18  C    0.114490
    21  N   -0.216331
    22  C    0.025592
    23  C    0.123783
    25  C    0.187073
    27  C    0.185966
    30  O   -0.057818
    31  S    0.093131
    32  S    0.090685
    33  C   -0.100041
    34  C   -0.004997
    35  C    0.025297
    36  C    0.035134
    37  C    0.038982
    38  C   -0.084746
    39  C   -0.046763
    43  C   -0.048739
    44  C   -0.084620
    45  C    0.039758
    46  C    0.035245
    47  C    0.023680
    48  C   -0.001512
    52  C   -0.097491
    54  C    0.203305
    57  C    0.053981
    58  C    0.032764
    61  Br  -0.988647
 Electronic spatial extent (au):  <R**2>=          28631.7667
 Charge=             -0.0000 electrons
 Dipole moment (field-independent basis, Debye):
    X=             23.2476    Y=              3.0301    Z=             12.1574  Tot=             26.4090
 Quadrupole moment (field-independent basis, Debye-Ang):
   XX=           -368.4023   YY=           -228.0160   ZZ=           -268.3633
   XY=            -19.1080   XZ=            -73.8203   YZ=             -9.3020
 Traceless Quadrupole moment (field-independent basis, Debye-Ang):
   XX=            -80.1417   YY=             60.2445   ZZ=             19.8972
   XY=            -19.1080   XZ=            -73.8203   YZ=             -9.3020
 Octapole moment (field-independent basis, Debye-Ang**2):
  XXX=            750.5838  YYY=              1.4901  ZZZ=             57.5587  XYY=             80.3616
  XXY=             74.5981  XXZ=            290.8533  XZZ=           -105.9161  YZZ=             15.7268
  YYZ=              4.1752  XYZ=            -48.7934
 Hexadecapole moment (field-independent basis, Debye-Ang**3):
 XXXX=         -28726.6013 YYYY=          -5753.5131 ZZZZ=          -5213.8004 XXXY=           -631.4846
 XXXZ=          -2406.9503 YYYX=            -21.2656 YYYZ=           -151.7741 ZZZX=           -349.6658
 ZZZY=            151.5203 XXYY=          -4811.1994 XXZZ=          -5203.8390 YYZZ=          -1954.8180
 XXYZ=            -86.9978 YYXZ=            -68.2931 ZZXY=            -90.8989
 N-N= 6.413475925949D+03 E-N=-2.736659692861D+04  KE= 6.117220936115D+03
 PrsmSu:  requested number of processors reduced to:  11 ShMem   1 Linda.
 D1PCM: PCM CHGder 1st derivatives, ID1Alg=3 FixD1E=F DoIter=F DoCFld=F I1PDM=0.
 CoulSu:  requested number of processors reduced to:   9 ShMem   1 Linda.
 CoulSu:  requested number of processors reduced to:  10 ShMem   1 Linda.
 Calling FoFJK, ICntrl=      2127 FMM=T ISym2X=0 I1Cent= 0 IOpClX= 0 NMat=1 NMatS=1 NMatT=0.
 ***** Axes restored to original set *****
 -------------------------------------------------------------------
 Center     Atomic                   Forces (Hartrees/Bohr)
 Number     Number              X              Y              Z
 -------------------------------------------------------------------
      1       25          -0.006430170    0.000369135    0.003491731
      2        6           0.001111867   -0.001963554    0.000634445
      3        8          -0.000273842    0.001267503   -0.000325220
      4        6           0.000039194   -0.001400432   -0.001513688
      5        8          -0.000181794    0.000868046    0.000866427
      6        6           0.001440257   -0.001883999   -0.001253391
      7        7           0.003621785    0.001109993    0.001640962
      8        6          -0.000796406    0.000650257   -0.000369389
      9        6          -0.000357159   -0.000115608   -0.000004489
     10        6           0.000524883    0.000127809   -0.000013745
     11        1           0.000502540   -0.000593111    0.000168130
     12        1           0.000713645    0.000050928    0.000143688
     13        7           0.001700324   -0.003164748   -0.000816645
     14        6          -0.002308380    0.003008393    0.001669424
     15        6           0.001508821   -0.001964939   -0.000900464
     16        6          -0.000880723   -0.000587905    0.000290459
     17        6          -0.000797580   -0.000322480    0.000285292
     18        6           0.001078697    0.000373076   -0.000447347
     19        1           0.000088875    0.000789769    0.000117572
     20        1          -0.001507763    0.000386036    0.000879253
     21        7           0.000644034    0.001085995   -0.003844101
     22        6          -0.000015294    0.000573278    0.000869106
     23        6          -0.000209542   -0.000215089    0.000408102
     24        1          -0.000046677   -0.000539600   -0.000608113
     25        6           0.000363409    0.000754790    0.000242098
     26        1          -0.000111532   -0.000986592    0.000235329
     27        6          -0.000057507    0.000752059   -0.000346122
     28        1          -0.000267624   -0.000973111   -0.000219780
     29        1           0.000709355    0.000043926   -0.000371410
     30        8          -0.001922079    0.000957317    0.001171982
     31       16          -0.000163134    0.001161385    0.000138975
     32       16          -0.000544059   -0.000671013    0.000143246
     33        6          -0.000400952   -0.001664793    0.000296011
     34        6           0.000204820    0.000799295   -0.000079377
     35        6          -0.000002124    0.000555040   -0.000565417
     36        6          -0.000246106   -0.000402025   -0.000691680
     37        6          -0.000136711   -0.000563891   -0.000179545
     38        6          -0.000142341    0.000085640   -0.000223034
     39        6           0.000027130   -0.000315493   -0.000592182
     40        1          -0.000076691   -0.000423727    0.000542206
     41        1           0.000279456    0.000425830    0.000565052
     42        1           0.000158884    0.000735861    0.000000763
     43        6           0.000481735   -0.000314843    0.000218899
     44        6           0.000302236   -0.000050501    0.000201074
     45        6           0.000052022   -0.000589363    0.000180651
     46        6           0.000660910   -0.000402257    0.000592240
     47        6           0.000501718    0.000519515    0.000189092
     48        6           0.000442629    0.000826066    0.000105068
     49        1           0.000142401    0.000733797   -0.000106748
     50        1          -0.000457712    0.000461467   -0.000397895
     51        1          -0.000429135   -0.000386467   -0.000266160
     52        6          -0.000442515   -0.001605535   -0.000189904
     53        1           0.000255376    0.000178323   -0.000662989
     54        6          -0.000291400    0.000094926   -0.000197946
     55        1           0.000143042    0.000819821    0.000082027
     56        1          -0.000073879    0.000904455   -0.000099094
     57        6          -0.000348079    0.000558699    0.000249958
     58        6           0.000723277    0.000771491   -0.000261691
     59        1          -0.000308503   -0.000836348    0.000014950
     60        1           0.000337272   -0.000649968   -0.000357200
     61       35           0.001466821    0.000787472   -0.000729447
 -------------------------------------------------------------------
 Cartesian Forces:  Max     0.006430170 RMS     0.001028074

 GradGradGradGradGradGradGradGradGradGradGradGradGradGradGradGradGradGrad
 Berny optimization.
 FormGI is forming the generalized inverse of G from B-inverse, IUseBI=4.
 Internal  Forces:  Max     0.006656026 RMS     0.000834886
 Search for a local minimum.
 Step number   1 out of a maximum of  360
 All quantities printed in internal units (Hartrees-Bohrs-Radians)
 Mixed Optimization -- En-DIIS/RFO-DIIS
 Second derivative matrix not updated -- first step.
 ITU=  0
     Eigenvalues ---    0.00230   0.00230   0.00528   0.00706   0.00717
     Eigenvalues ---    0.01300   0.01432   0.01525   0.01601   0.01621
     Eigenvalues ---    0.01676   0.01680   0.01774   0.01811   0.01831
     Eigenvalues ---    0.01891   0.01899   0.01905   0.01948   0.02005
     Eigenvalues ---    0.02067   0.02068   0.02124   0.02131   0.02139
     Eigenvalues ---    0.02143   0.02146   0.02155   0.02159   0.02164
     Eigenvalues ---    0.02167   0.02174   0.02176   0.02177   0.02178
     Eigenvalues ---    0.02179   0.02181   0.02191   0.02195   0.02198
     Eigenvalues ---    0.02227   0.02227   0.02264   0.02276   0.02348
     Eigenvalues ---    0.02348   0.02354   0.02379   0.02889   0.03506
     Eigenvalues ---    0.03870   0.04058   0.04488   0.04933   0.05053
     Eigenvalues ---    0.05053   0.05118   0.05118   0.05121   0.05121
     Eigenvalues ---    0.06384   0.08454   0.08525   0.08790   0.09016
     Eigenvalues ---    0.09193   0.09239   0.11398   0.13200   0.13425
     Eigenvalues ---    0.15995   0.15996   0.15998   0.15998   0.15998
     Eigenvalues ---    0.15999   0.15999   0.15999   0.15999   0.16000
     Eigenvalues ---    0.16000   0.16000   0.16000   0.16000   0.16000
     Eigenvalues ---    0.16000   0.16000   0.16000   0.16000   0.16415
     Eigenvalues ---    0.16790   0.17926   0.21823   0.21983   0.22000
     Eigenvalues ---    0.22000   0.22017   0.22049   0.22129   0.22132
     Eigenvalues ---    0.22174   0.22367   0.22896   0.22945   0.23412
     Eigenvalues ---    0.23460   0.23483   0.23484   0.23638   0.23761
     Eigenvalues ---    0.23826   0.24117   0.24907   0.24928   0.24994
     Eigenvalues ---    0.24998   0.25000   0.26792   0.26876   0.27593
     Eigenvalues ---    0.28071   0.32884   0.33347   0.34062   0.34451
     Eigenvalues ---    0.34460   0.34466   0.34478   0.34480   0.34495
     Eigenvalues ---    0.34496   0.34521   0.34527   0.34533   0.34541
     Eigenvalues ---    0.34542   0.34661   0.34667   0.34670   0.34671
     Eigenvalues ---    0.34783   0.34852   0.38377   0.39770   0.40259
     Eigenvalues ---    0.40764   0.41553   0.41598   0.41711   0.41910
     Eigenvalues ---    0.42246   0.43911   0.43930   0.44300   0.44961
     Eigenvalues ---    0.45518   0.45770   0.45890   0.45966   0.45991
     Eigenvalues ---    0.46146   0.46393   0.46484   0.46498   0.46821
     Eigenvalues ---    0.46855   0.47135   0.47321   0.47353   0.54327
     Eigenvalues ---    0.54455   0.55757   0.56737   1.32812   1.37496
     Eigenvalues ---    1.41082   1.41255
 RFO step:  Lambda=-2.39260372D-03 EMin= 2.30000000D-03
 Linear search not attempted -- first point.
 Iteration  1 RMS(Cart)=  0.10364697 RMS(Int)=  0.00306794
 Iteration  2 RMS(Cart)=  0.01333140 RMS(Int)=  0.00010832
 Iteration  3 RMS(Cart)=  0.00008160 RMS(Int)=  0.00010021
 Iteration  4 RMS(Cart)=  0.00000001 RMS(Int)=  0.00010021
 Variable       Old X    -DE/DX   Delta X   Delta X   Delta X     New X
                                 (Linear)    (Quad)   (Total)
    R1        3.46313   0.00062   0.00000   0.00280   0.00280   3.46593
    R2        3.46210   0.00035   0.00000   0.00158   0.00158   3.46368
    R3        3.43490   0.00059   0.00000   0.00255   0.00255   3.43745
    R4        4.14415  -0.00455   0.00000  -0.05125  -0.05130   4.09285
    R5        3.81878  -0.00145   0.00000  -0.01062  -0.01062   3.80816
    R6        4.15230  -0.00449   0.00000  -0.05145  -0.05149   4.10080
    R7        2.15573  -0.00004   0.00000  -0.00003  -0.00003   2.15571
    R8        2.15617  -0.00054   0.00000  -0.00038  -0.00038   2.15579
    R9        2.16540  -0.00207   0.00000  -0.00150  -0.00150   2.16390
   R10        2.52339  -0.00066   0.00000  -0.00183  -0.00188   2.52151
   R11        2.53987  -0.00043   0.00000  -0.00091  -0.00091   2.53895
   R12        2.63083   0.00017   0.00000   0.00133   0.00137   2.63221
   R13        2.06213  -0.00078   0.00000  -0.00224  -0.00223   2.05989
   R14        2.62097   0.00024   0.00000   0.00124   0.00126   2.62223
   R15        2.06550  -0.00072   0.00000  -0.00207  -0.00207   2.06343
   R16        2.63468  -0.00009   0.00000  -0.00001   0.00000   2.63469
   R17        2.63795   0.00030   0.00000  -0.00063  -0.00069   2.63726
   R18        2.06029  -0.00070   0.00000  -0.00199  -0.00199   2.05830
   R19        2.17796   0.00222   0.00000   0.00167   0.00167   2.17963
   R20        2.71202  -0.00194   0.00000  -0.00480  -0.00480   2.70722
   R21        2.65254   0.00105   0.00000   0.00247   0.00247   2.65501
   R22        2.64933   0.00241   0.00000   0.00554   0.00555   2.65488
   R23        2.62733  -0.00062   0.00000  -0.00141  -0.00141   2.62592
   R24        2.06449  -0.00075   0.00000  -0.00215  -0.00215   2.06235
   R25        2.06439  -0.00080   0.00000  -0.00229  -0.00229   2.06210
   R26        2.63959  -0.00051   0.00000  -0.00135  -0.00136   2.63824
   R27        2.07225  -0.00000   0.00000  -0.00001  -0.00001   2.07224
   R28        2.63041  -0.00004   0.00000   0.00001   0.00001   2.63042
   R29        5.09031   0.00126   0.00000   0.05460   0.05460   5.14491
   R30        2.53972  -0.00054   0.00000  -0.00107  -0.00108   2.53864
   R31        2.52349  -0.00064   0.00000  -0.00195  -0.00199   2.52149
   R32        2.63080   0.00011   0.00000   0.00108   0.00113   2.63193
   R33        2.06219  -0.00081   0.00000  -0.00233  -0.00233   2.05987
   R34        2.62113   0.00016   0.00000   0.00101   0.00104   2.62217
   R35        2.63501  -0.00002   0.00000   0.00010   0.00011   2.63512
   R36        2.06561  -0.00073   0.00000  -0.00210  -0.00210   2.06351
   R37        2.06214  -0.00098   0.00000  -0.00282  -0.00282   2.05932
   R38        2.06229  -0.00096   0.00000  -0.00275  -0.00275   2.05954
   R39        3.36303   0.00033   0.00000   0.00101   0.00105   3.36408
   R40        3.36282   0.00036   0.00000   0.00137   0.00140   3.36422
   R41        3.35214   0.00063   0.00000   0.00325   0.00326   3.35540
   R42        3.35186   0.00074   0.00000   0.00358   0.00359   3.35545
   R43        2.81702  -0.00110   0.00000  -0.00302  -0.00302   2.81400
   R44        2.64356  -0.00004   0.00000  -0.00025  -0.00025   2.64331
   R45        2.66100  -0.00047   0.00000  -0.00074  -0.00069   2.66030
   R46        2.63136  -0.00009   0.00000  -0.00000   0.00000   2.63136
   R47        2.06531  -0.00067   0.00000  -0.00193  -0.00193   2.06337
   R48        2.62971   0.00004   0.00000   0.00044   0.00045   2.63016
   R49        2.06425  -0.00075   0.00000  -0.00215  -0.00215   2.06210
   R50        2.63935   0.00015   0.00000   0.00046   0.00047   2.63982
   R51        2.06502  -0.00075   0.00000  -0.00216  -0.00216   2.06286
   R52        2.64883   0.00021   0.00000   0.00032   0.00031   2.64914
   R53        2.64923   0.00021   0.00000   0.00012   0.00011   2.64934
   R54        2.66139  -0.00055   0.00000  -0.00120  -0.00116   2.66023
   R55        2.63916   0.00022   0.00000   0.00071   0.00072   2.63987
   R56        2.62918   0.00015   0.00000   0.00083   0.00083   2.63002
   R57        2.06501  -0.00075   0.00000  -0.00217  -0.00217   2.06284
   R58        2.63103  -0.00010   0.00000   0.00006   0.00006   2.63109
   R59        2.06427  -0.00076   0.00000  -0.00218  -0.00218   2.06209
   R60        2.64446  -0.00007   0.00000  -0.00038  -0.00039   2.64408
   R61        2.06528  -0.00061   0.00000  -0.00176  -0.00176   2.06352
   R62        2.81796  -0.00134   0.00000  -0.00418  -0.00418   2.81378
   R63        2.63901   0.00005   0.00000  -0.00114  -0.00123   2.63779
   R64        2.05917  -0.00058   0.00000  -0.00165  -0.00165   2.05752
   R65        2.63716  -0.00013   0.00000  -0.00042  -0.00042   2.63674
   R66        2.06575  -0.00081   0.00000  -0.00233  -0.00233   2.06342
[...]
                 (A) (A) (A) (A) (A) (A) (A) (A) (A) (A) (A) (A)
                 (A) (A) (A) (A) (A) (A) (A) (A) (A) (A) (A) (A)
                 (A) (A) (A) (A) (A) (A) (A) (A) (A) (A) (A) (A)
                 (A) (A) (A) (A) (A) (A) (A) (A) (A) (A) (A) (A)
                 (A) (A) (A) (A) (A) (A) (A) (A) (A) (A) (A) (A)
                 (A) (A) (A) (A) (A) (A) (A) (A) (A) (A) (A) (A)
                 (A) (A) (A) (A) (A) (A) (A) (A) (A) (A) (A) (A)
                 (A) (A) (A) (A) (A) (A) (A) (A) (A) (A) (A) (A)
                 (A) (A) (A) (A) (A) (A) (A) (A) (A) (A) (A) (A)
                 (A) (A) (A) (A) (A) (A) (A) (A) (A) (A) (A) (A)
                 (A) (A) (A) (A) (A) (A) (A) (A) (A) (A) (A)
 The electronic state is 1-A.
 Alpha  occ. eigenvalues -- -482.95253-235.70695 -89.04470 -89.04064 -62.53316
 Alpha  occ. eigenvalues --  -56.33868 -56.33866 -56.33865 -27.47734 -23.53538
 Alpha  occ. eigenvalues --  -23.53287 -23.53279 -19.34918 -19.34606 -19.34604
 Alpha  occ. eigenvalues --  -14.51029 -14.51027 -14.50018 -10.42338 -10.42146
 Alpha  occ. eigenvalues --  -10.42141 -10.39281 -10.37363 -10.37359 -10.36839
 Alpha  occ. eigenvalues --  -10.36839 -10.36242 -10.36238 -10.35965 -10.35880
 Alpha  occ. eigenvalues --  -10.35876 -10.34937 -10.34936 -10.34830 -10.34829
 Alpha  occ. eigenvalues --  -10.34668 -10.34665 -10.33875 -10.33656 -10.33656
 Alpha  occ. eigenvalues --  -10.33036 -10.33035 -10.32979 -10.32862 -10.32833
 Alpha  occ. eigenvalues --  -10.32833 -10.32615 -10.32614 -10.32534 -10.32224
 Alpha  occ. eigenvalues --   -8.70081  -8.09540  -8.09207  -6.51758  -6.51755
 Alpha  occ. eigenvalues --   -6.51749  -6.05004  -6.04668  -6.04611  -6.04272
 Alpha  occ. eigenvalues --   -6.03978  -6.03641  -3.26951  -2.62267  -2.62266
 Alpha  occ. eigenvalues --   -2.62261  -2.62258  -2.62257  -2.12532  -2.11969
 Alpha  occ. eigenvalues --   -2.11947  -1.23835  -1.23589  -1.23548  -1.08834
 Alpha  occ. eigenvalues --   -1.08488  -1.05329  -1.01538  -0.99138  -0.98306
 Alpha  occ. eigenvalues --   -0.95119  -0.93983  -0.92504  -0.91687  -0.90293
 Alpha  occ. eigenvalues --   -0.88863  -0.88689  -0.86818  -0.86521  -0.85878
 Alpha  occ. eigenvalues --   -0.83275  -0.79202  -0.76531  -0.76441  -0.75839
 Alpha  occ. eigenvalues --   -0.75526  -0.75382  -0.74447  -0.72799  -0.72126
 Alpha  occ. eigenvalues --   -0.70876  -0.70335  -0.68773  -0.67463  -0.66022
 Alpha  occ. eigenvalues --   -0.65421  -0.65397  -0.65259  -0.64918  -0.62922
 Alpha  occ. eigenvalues --   -0.62108  -0.61502  -0.60541  -0.60196  -0.58864
 Alpha  occ. eigenvalues --   -0.58607  -0.58228  -0.57845  -0.57603  -0.57584
 Alpha  occ. eigenvalues --   -0.57258  -0.57114  -0.56659  -0.55970  -0.55507
 Alpha  occ. eigenvalues --   -0.55129  -0.55038  -0.54614  -0.54461  -0.54173
 Alpha  occ. eigenvalues --   -0.54018  -0.53434  -0.53022  -0.52973  -0.52732
 Alpha  occ. eigenvalues --   -0.52562  -0.52413  -0.52289  -0.51893  -0.51130
 Alpha  occ. eigenvalues --   -0.50826  -0.50021  -0.49485  -0.48863  -0.48635
 Alpha  occ. eigenvalues --   -0.48097  -0.47820  -0.46545  -0.46159  -0.45665
 Alpha  occ. eigenvalues --   -0.45118  -0.44692  -0.44666  -0.44227  -0.42518
 Alpha  occ. eigenvalues --   -0.41907  -0.40867  -0.40483  -0.40255  -0.38897
 Alpha  occ. eigenvalues --   -0.37776  -0.37408  -0.36343  -0.35898  -0.35719
 Alpha  occ. eigenvalues --   -0.34819  -0.32831  -0.32389  -0.32277  -0.31733
 Alpha  occ. eigenvalues --   -0.30553  -0.29567  -0.29535  -0.29492
 Alpha virt. eigenvalues --   -0.00818  -0.00215  -0.00074   0.00317   0.01448
 Alpha virt. eigenvalues --    0.02245   0.02916   0.03416   0.03811   0.03846
 Alpha virt. eigenvalues --    0.04072   0.04451   0.04832   0.06682   0.06879
 Alpha virt. eigenvalues --    0.07883   0.08855   0.08909   0.09897   0.09932
 Alpha virt. eigenvalues --    0.10335   0.10760   0.12606   0.12786   0.13160
 Alpha virt. eigenvalues --    0.13616   0.14139   0.14560   0.15182   0.15247
 Alpha virt. eigenvalues --    0.15269   0.15852   0.16058   0.16630   0.17614
 Alpha virt. eigenvalues --    0.18132   0.18662   0.18690   0.19517   0.19554
 Alpha virt. eigenvalues --    0.19969   0.20353   0.20597   0.21024   0.21230
 Alpha virt. eigenvalues --    0.21568   0.22032   0.22800   0.23083   0.23293
 Alpha virt. eigenvalues --    0.23324   0.24335   0.24992   0.25467   0.25608
 Alpha virt. eigenvalues --    0.26031   0.26392   0.27344   0.27582   0.28165
 Alpha virt. eigenvalues --    0.28523   0.29600   0.31189   0.31305   0.31811
 Alpha virt. eigenvalues --    0.31894   0.32510   0.32519   0.33028   0.33243
 Alpha virt. eigenvalues --    0.33742   0.34971   0.35105   0.35338   0.35382
 Alpha virt. eigenvalues --    0.36059   0.36168   0.36502   0.37006   0.37264
 Alpha virt. eigenvalues --    0.37776   0.38397   0.38649   0.38990   0.39578
 Alpha virt. eigenvalues --    0.39877   0.40372   0.41507   0.42048   0.42237
 Alpha virt. eigenvalues --    0.42253   0.42930   0.43145   0.44892   0.44998
 Alpha virt. eigenvalues --    0.45326   0.46029   0.46202   0.46806   0.47507
 Alpha virt. eigenvalues --    0.47819   0.47872   0.48489   0.48649   0.48675
 Alpha virt. eigenvalues --    0.49291   0.49481   0.49940   0.50548   0.51244
 Alpha virt. eigenvalues --    0.51774   0.52095   0.52340   0.52447   0.52617
 Alpha virt. eigenvalues --    0.52769   0.53397   0.53637   0.54079   0.54458
 Alpha virt. eigenvalues --    0.54479   0.55037   0.55211   0.55559   0.55589
 Alpha virt. eigenvalues --    0.56167   0.56524   0.56863   0.57013   0.57352
 Alpha virt. eigenvalues --    0.58119   0.58198   0.59021   0.59143   0.59832
 Alpha virt. eigenvalues --    0.60489   0.60560   0.60980   0.61195   0.61673
 Alpha virt. eigenvalues --    0.62564   0.62582   0.63314   0.63336   0.63924
 Alpha virt. eigenvalues --    0.64219   0.64931   0.65104   0.66155   0.66212
 Alpha virt. eigenvalues --    0.66626   0.67076   0.67416   0.67657   0.67676
 Alpha virt. eigenvalues --    0.68000   0.68898   0.69464   0.70171   0.70191
 Alpha virt. eigenvalues --    0.70275   0.70622   0.71116   0.71328   0.72063
 Alpha virt. eigenvalues --    0.72184   0.72298   0.72511   0.72898   0.73158
 Alpha virt. eigenvalues --    0.73254   0.73274   0.73660   0.73924   0.74706
 Alpha virt. eigenvalues --    0.74712   0.74949   0.75260   0.75537   0.76400
 Alpha virt. eigenvalues --    0.76487   0.76657   0.76776   0.77452   0.77596
 Alpha virt. eigenvalues --    0.78165   0.78498   0.78893   0.78970   0.79176
 Alpha virt. eigenvalues --    0.79591   0.79914   0.80710   0.80845   0.81013
 Alpha virt. eigenvalues --    0.81340   0.81784   0.82401   0.82713   0.82902
 Alpha virt. eigenvalues --    0.83007   0.83333   0.83342   0.83939   0.84062
 Alpha virt. eigenvalues --    0.84539   0.84935   0.85168   0.85224   0.85840
 Alpha virt. eigenvalues --    0.85929   0.86869   0.87097   0.87331   0.87916
 Alpha virt. eigenvalues --    0.88205   0.88211   0.88777   0.88853   0.89055
 Alpha virt. eigenvalues --    0.89765   0.90189   0.90324   0.90506   0.90821
 Alpha virt. eigenvalues --    0.91250   0.91528   0.91759   0.92881   0.93116
 Alpha virt. eigenvalues --    0.93426   0.94263   0.95072   0.95337   0.96027
 Alpha virt. eigenvalues --    0.96625   0.97497   0.97979   0.98566   0.98688
 Alpha virt. eigenvalues --    0.99914   1.00147   1.00654   1.02325   1.03479
 Alpha virt. eigenvalues --    1.04895   1.05350   1.05962   1.06277   1.07657
 Alpha virt. eigenvalues --    1.07940   1.08611   1.08750   1.09796   1.10038
 Alpha virt. eigenvalues --    1.11659   1.11948   1.12249   1.13453   1.13734
 Alpha virt. eigenvalues --    1.14319   1.14411   1.15315   1.15784   1.16803
 Alpha virt. eigenvalues --    1.17661   1.18512   1.19584   1.19917   1.21008
 Alpha virt. eigenvalues --    1.21597   1.22172   1.24516   1.24712   1.24873
 Alpha virt. eigenvalues --    1.26183   1.26463   1.27148   1.27450   1.28242
 Alpha virt. eigenvalues --    1.28438   1.28585   1.29154   1.29212   1.29367
 Alpha virt. eigenvalues --    1.29640   1.30469   1.30874   1.30881   1.31468
 Alpha virt. eigenvalues --    1.32159   1.32906   1.33361   1.33963   1.34458
 Alpha virt. eigenvalues --    1.34483   1.35026   1.35816   1.36051   1.36125
 Alpha virt. eigenvalues --    1.36473   1.36881   1.36996   1.37681   1.38247
 Alpha virt. eigenvalues --    1.38249   1.39247   1.40267   1.41185   1.43107
 Alpha virt. eigenvalues --    1.43591   1.44908   1.45695   1.47960   1.49341
 Alpha virt. eigenvalues --    1.49610   1.49880   1.52229   1.52704   1.54356
 Alpha virt. eigenvalues --    1.56413   1.57421   1.58480   1.59957   1.61072
 Alpha virt. eigenvalues --    1.61749   1.62682   1.64730   1.65439   1.65492
 Alpha virt. eigenvalues --    1.65747   1.66911   1.67816   1.68498   1.68803
 Alpha virt. eigenvalues --    1.69020   1.70859   1.71785   1.72258   1.73060
 Alpha virt. eigenvalues --    1.73147   1.73332   1.74108   1.74474   1.75399
 Alpha virt. eigenvalues --    1.75746   1.75978   1.76426   1.76787   1.77181
 Alpha virt. eigenvalues --    1.77375   1.78105   1.78215   1.78643   1.79145
 Alpha virt. eigenvalues --    1.79191   1.79811   1.79912   1.80514   1.80831
 Alpha virt. eigenvalues --    1.80842   1.81626   1.81806   1.82130   1.82886
 Alpha virt. eigenvalues --    1.83114   1.83154   1.83643   1.84457   1.84591
 Alpha virt. eigenvalues --    1.84835   1.85444   1.86718   1.87695   1.87791
 Alpha virt. eigenvalues --    1.87943   1.88757   1.88870   1.89456   1.89474
 Alpha virt. eigenvalues --    1.89938   1.90879   1.91454   1.91642   1.91928
 Alpha virt. eigenvalues --    1.92936   1.93896   1.94288   1.95508   1.95893
 Alpha virt. eigenvalues --    1.97732   1.98121   1.99105   1.99454   1.99855
 Alpha virt. eigenvalues --    2.00501   2.01254   2.01259   2.01785   2.01828
 Alpha virt. eigenvalues --    2.02162   2.02790   2.02935   2.03486   2.04658
 Alpha virt. eigenvalues --    2.05395   2.05476   2.05645   2.06219   2.06830
 Alpha virt. eigenvalues --    2.07213   2.08180   2.08222   2.09815   2.10048
 Alpha virt. eigenvalues --    2.10439   2.11286   2.11560   2.12694   2.14827
 Alpha virt. eigenvalues --    2.15044   2.17303   2.17385   2.17691   2.18411
 Alpha virt. eigenvalues --    2.18639   2.19084   2.20041   2.20162   2.20770
 Alpha virt. eigenvalues --    2.21688   2.22375   2.23216   2.23438   2.23761
 Alpha virt. eigenvalues --    2.25901   2.26602   2.29649   2.29946   2.30108
 Alpha virt. eigenvalues --    2.30586   2.30928   2.31103   2.31218   2.32434
 Alpha virt. eigenvalues --    2.33009   2.34323   2.34650   2.34828   2.35405
 Alpha virt. eigenvalues --    2.36262   2.37142   2.37278   2.37912   2.37972
 Alpha virt. eigenvalues --    2.38761   2.38833   2.39309   2.39482   2.40526
 Alpha virt. eigenvalues --    2.40971   2.41787   2.42709   2.42783   2.45400
 Alpha virt. eigenvalues --    2.45975   2.47196   2.48860   2.49381   2.49549
 Alpha virt. eigenvalues --    2.52696   2.52801   2.55602   2.55814   2.58176
 Alpha virt. eigenvalues --    2.58489   2.59286   2.59743   2.61897   2.65514
 Alpha virt. eigenvalues --    2.67073   2.67077   2.67769   2.67868   2.68137
 Alpha virt. eigenvalues --    2.69130   2.69253   2.69348   2.69684   2.69849
 Alpha virt. eigenvalues --    2.69930   2.70316   2.70410   2.70681   2.71231
 Alpha virt. eigenvalues --    2.72031   2.75709   2.76398   2.76569   2.79132
 Alpha virt. eigenvalues --    2.79143   2.79765   2.80073   2.80876   2.81855
 Alpha virt. eigenvalues --    2.82826   2.83715   2.84722   2.85440   2.85882
 Alpha virt. eigenvalues --    2.86933   2.87533   2.89072   2.90075   2.91988
 Alpha virt. eigenvalues --    2.92895   2.93155   2.95623   2.98262   2.98935
 Alpha virt. eigenvalues --    3.00075   3.01799   3.03164   3.03905   3.04242
 Alpha virt. eigenvalues --    3.04464   3.06265   3.07039   3.08006   3.09562
 Alpha virt. eigenvalues --    3.09897   3.14816   3.15300   3.16713   3.19536
 Alpha virt. eigenvalues --    3.19682   3.21457   3.22432   3.22950   3.23240
 Alpha virt. eigenvalues --    3.24270   3.24680   3.29822   3.30263   3.32761
 Alpha virt. eigenvalues --    3.37066   3.38610   3.39392   3.46665   3.51059
 Alpha virt. eigenvalues --    3.51282   3.52868   3.55941   3.57188   3.58261
 Alpha virt. eigenvalues --    3.61565   3.61691   3.61856   3.63211   3.63347
 Alpha virt. eigenvalues --    3.65958   3.69100   3.70001   3.70006   3.75223
 Alpha virt. eigenvalues --    3.75759   3.76362   3.78807   3.79425   3.80473
 Alpha virt. eigenvalues --    3.90859   3.91895   3.97092   4.04379   4.06937
          Condensed to atoms (all electrons):
 Mulliken charges:
               1
     1  Mn  -0.727679
     2  C    0.360989
     3  O   -0.037226
     4  C    0.360687
     5  O   -0.037399
     6  C    0.307970
     7  N   -0.215845
     8  C   -0.039251
     9  C    0.067426
    10  C    0.161386
    11  H    0.065849
    12  H    0.058568
    13  N    0.106564
    14  C    0.004799
    15  C   -0.172535
    16  C    0.024068
    17  C   -0.025695
    18  C    0.042822
    19  H    0.048258
    20  H    0.070072
    21  N   -0.215887
    22  C   -0.039137
    23  C    0.067923
    24  H    0.065873
    25  C    0.110988
    26  H    0.077700
    27  C    0.110942
    28  H    0.077797
    29  H    0.052746
    30  O   -0.052792
    31  S    0.093924
    32  S    0.091833
    33  C   -0.097894
    34  C   -0.003262
    35  C   -0.015043
    36  C   -0.017284
    37  C   -0.003706
    38  C   -0.083894
    39  C   -0.049147
    40  H    0.041070
    41  H    0.052783
    42  H    0.043075
    43  C   -0.048746
    44  C   -0.083998
    45  C   -0.003695
    46  C   -0.017361
    47  C   -0.014639
    48  C   -0.003853
    49  H    0.043059
    50  H    0.052796
    51  H    0.041017
    52  C   -0.098227
    53  H    0.058581
    54  C    0.160222
    55  H    0.041386
    56  H    0.040256
    57  C   -0.000299
    58  C   -0.020902
    59  H    0.054860
    60  H    0.056002
    61  Br  -0.988898
 Sum of Mulliken charges =  -0.00000
 Mulliken charges with hydrogens summed into heavy atoms:
               1
     1  Mn  -0.727679
     2  C    0.360989
     3  O   -0.037226
     4  C    0.360687
     5  O   -0.037399
     6  C    0.307970
     7  N   -0.215845
     8  C    0.026598
     9  C    0.125994
    10  C    0.201642
    13  N    0.106564
    14  C    0.004799
    15  C   -0.172535
    16  C    0.072326
    17  C    0.027051
    18  C    0.112894
    21  N   -0.215887
    22  C    0.026736
    23  C    0.126505
    25  C    0.188688
    27  C    0.188740
    30  O   -0.052792
    31  S    0.093924
    32  S    0.091833
    33  C   -0.097894
    34  C   -0.003262
    35  C    0.026027
    36  C    0.035499
    37  C    0.039369
    38  C   -0.083894
    39  C   -0.049147
    43  C   -0.048746
    44  C   -0.083998
    45  C    0.039364
    46  C    0.035435
    47  C    0.026378
    48  C   -0.003853
    52  C   -0.098227
    54  C    0.201608
    57  C    0.055703
    58  C    0.033958
    61  Br  -0.988898
 Electronic spatial extent (au):  <R**2>=          29398.0276
 Charge=             -0.0000 electrons
 Dipole moment (field-independent basis, Debye):
    X=             24.6364    Y=             -0.4464    Z=             13.7012  Tot=             28.1935
 Quadrupole moment (field-independent basis, Debye-Ang):
   XX=           -382.4394   YY=           -226.2511   ZZ=           -271.5442
   XY=              2.7646   XZ=            -85.6896   YZ=              1.2017
 Traceless Quadrupole moment (field-independent basis, Debye-Ang):
   XX=            -89.0278   YY=             67.1605   ZZ=             21.8674
   XY=              2.7646   XZ=            -85.6896   YZ=              1.2017
 Octapole moment (field-independent basis, Debye-Ang**2):
  XXX=            865.7887  YYY=             -0.1287  ZZZ=             64.5165  XYY=             96.4645
  XXY=            -12.3013  XXZ=            363.6140  XZZ=            -99.0436  YZZ=             -2.1553
  YYZ=              1.1872  XYZ=              5.1632
 Hexadecapole moment (field-independent basis, Debye-Ang**3):
 XXXX=         -30936.3480 YYYY=          -5567.3519 ZZZZ=          -4985.7879 XXXY=             96.5285
 XXXZ=          -3043.8260 YYYX=              0.7796 YYYZ=             18.0953 ZZZX=           -421.5714
 ZZZY=            -19.6648 XXYY=          -4983.9577 XXZZ=          -5506.1980 YYZZ=          -1963.9837
 XXYZ=             16.8973 YYXZ=            -39.0887 ZZXY=             13.3687
 N-N= 6.375695183215D+03 E-N=-2.729033625080D+04  KE= 6.117285002558D+03
 1\1\GINC-C410-094\FOpt\RwB97XD\Gen\C32H19Br1Mn1N3O3S2\DMCINTOS\18-Mar-
 2023\0\\# wB97XD Gen SCRF=(Solvent=TetraHydroFuran) Opt\\Thian React O
 ptimization\\0,1\Mn,8.5216305395,3.0244832004,14.8585157392\C,10.13962
 20209,3.5871808796,15.5181069868\O,11.1499763705,3.9079858175,15.93907
 90116\C,8.8769738055,3.7162855199,13.1957302059\O,9.0912615382,4.11928
 37717,12.1503962638\C,9.284706349,1.4511445711,14.3537450604\N,6.57202
 32141,2.4205910672,14.1567743909\C,4.4085212807,2.9925260695,13.293562
 6835\C,3.9928711101,1.666479861,13.3799580622\C,6.1775753337,1.1447919
 781,14.1886435496\H,3.7414755517,3.7715325866,12.9241979827\H,2.979978
 978,1.3766914555,13.0929957168\N,7.6430886472,4.7472493701,15.43342506
 13\C,7.1459967977,5.7373828336,15.7567169235\C,6.4821989371,6.93293342
 27,16.1798720554\C,5.24545082,6.8257023883,16.8376220063\C,4.597613644
 7,7.9841460058,17.2500752979\C,7.0700996552,8.1824338003,15.9329810519
 \H,4.8042839114,5.8441985576,17.0197644378\H,8.0344333648,8.2319234016
 ,15.4170245426\N,8.0231955303,2.2703229335,16.8182764102\C,7.594226625
 6,2.661527413,19.145420457\C,7.2376698438,1.3286246677,19.3322038436\H
 ,7.574719786,3.3733714424,19.9707244693\C,5.6927853949,3.3276791846,13
 .6969038245\H,6.0328476558,4.3611271206,13.642382189\C,7.9693030832,3.
 0917672735,17.8810778195\H,8.2446619827,4.1325618822,17.7148981479\H,3
 .6367057121,7.9145014466,17.7624254763\O,9.7835480866,0.4742818483,14.
 0262189423\S,4.7647324983,-0.4482016988,16.7134715865\S,4.1808917956,-
 3.583362727,16.8538472027\C,4.8965888758,0.7115177564,13.8431461562\C,
 4.553522624,-0.7323730165,13.9641941931\C,4.2368764546,-1.4663646723,1
 2.8162168792\C,3.9579751137,-2.8283783238,12.8945223755\C,3.9943759305
 ,-3.4795893296,14.1238837028\C,4.2655120658,-2.7538360417,15.286239310
 6\C,4.5412273181,-1.3814939126,15.2136359849\H,4.2335882358,-0.9617255
 983,11.8478817677\H,3.7277350678,-3.3911647629,11.9883936598\H,3.80192
 40511,-4.5522276015,14.1890407086\C,5.8588127663,-1.5190076063,17.6227
 449157\C,5.5836578059,-2.8914865364,17.6943071177\C,6.3797032249,-3.72
 87199457,18.4795795486\C,7.4240124931,-3.190307958,19.2254453469\C,7.7
 04688557,-1.8282530751,19.1539625919\C,6.9457365053,-0.9819701525,18.3
 387600538\H,6.1701103719,-4.7996491943,18.5114673879\H,8.0345388644,-3
 .8409827693,19.8536886205\H,8.540248629,-1.411023555,19.7197373419\C,7
 .2997814927,0.4611523562,18.2427955097\H,6.9137686574,0.9666925806,20.
 3101309915\C,7.7269578765,0.9836889601,17.021170054\H,7.8373797299,0.3
 044610411,16.1776019969\H,6.910648759,0.4009298669,14.4954873089\C,5.1
 770071357,9.2321671846,17.0086364904\C,6.4055293393,9.3302339549,16.35
 39103735\H,6.8521151212,10.3083907242,16.1682451263\H,4.663153702,10.1
 384892597,17.3355464278\Br,10.3258835708,7.549749611,14.1369552496\\Ve
 rsion=ES64L-G16RevA.03\State=1-A\HF=-6140.2589892\RMSD=7.810e-09\RMSF=
 4.954e-05\Dipole=-7.5204301,-7.2828854,3.6659286\Quadrupole=-17.826877
 1,-15.9190841,33.7459612,-67.7782058,33.1239221,32.9696232\PG=C01 [X(C
 32H19Br1Mn1N3O3S2)]\\@


 THE HURRIEDER I GO, THE BEHINDER I GET.
 Job cpu time:      20 days  5 hours  9 minutes  0.5 seconds.
 Elapsed time:       1 days 17 hours 23 minutes 22.7 seconds.
 File lengths (MBytes):  RWF=   1131 Int=      0 D2E=      0 Chk=     49 Scr=      1
 Normal termination of Gaussian 16 at Sat Mar 18 13:04:02 2023.
