 Entering Gaussian System, Link 0=g16
 Initial command:
 /home1/apps/gaussian/16rA.03/g16/l1.exe "/tmp/Gau-43580.inp" -scrdir="/tmp/"
 Entering Link 1 = /home1/apps/gaussian/16rA.03/g16/l1.exe PID=     43582.
  
 Copyright (c) 1988,1990,1992,1993,1995,1998,2003,2009,2016,
            Gaussian, Inc.  All Rights Reserved.
  
 This is part of the Gaussian(R) 16 program.  It is based on
 the Gaussian(R) 09 system (copyright 2009, Gaussian, Inc.),
 the Gaussian(R) 03 system (copyright 2003, Gaussian, Inc.),
 the Gaussian(R) 98 system (copyright 1998, Gaussian, Inc.),
 the Gaussian(R) 94 system (copyright 1995, Gaussian, Inc.),
 the Gaussian 92(TM) system (copyright 1992, Gaussian, Inc.),
 the Gaussian 90(TM) system (copyright 1990, Gaussian, Inc.),
 the Gaussian 88(TM) system (copyright 1988, Gaussian, Inc.),
 the Gaussian 86(TM) system (copyright 1986, Carnegie Mellon
 University), and the Gaussian 82(TM) system (copyright 1983,
 Carnegie Mellon University). Gaussian is a federally registered
 trademark of Gaussian, Inc.
  
 This software contains proprietary and confidential information,
 including trade secrets, belonging to Gaussian, Inc.
  
 This software is provided under written license and may be
 used, copied, transmitted, or stored only in accord with that
 written license.
  
 The following legend is applicable only to US Government
 contracts under FAR:
  
                    RESTRICTED RIGHTS LEGEND
  
 Use, reproduction and disclosure by the US Government is
 subject to restrictions as set forth in subparagraphs (a)
 and (c) of the Commercial Computer Software - Restricted
 Rights clause in FAR 52.227-19.
  
 Gaussian, Inc.
 340 Quinnipiac St., Bldg. 40, Wallingford CT 06492
  
  
 ---------------------------------------------------------------
 Warning -- This program may not be used in any manner that
 competes with the business of Gaussian, Inc. or will provide
 assistance to any competitor of Gaussian, Inc.  The licensee
 of this program is prohibited from giving any competitor of
 Gaussian, Inc. access to this program.  By using this program,
 the user acknowledges that Gaussian, Inc. is engaged in the
 business of creating and licensing software in the field of
 computational chemistry and represents and warrants to the
 licensee that it is not a competitor of Gaussian, Inc. and that
 it will not use this program in any manner prohibited above.
 ---------------------------------------------------------------
  

 Cite this work as:
 Gaussian 16, Revision A.03,
 M. J. Frisch, G. W. Trucks, H. B. Schlegel, G. E. Scuseria, 
 M. A. Robb, J. R. Cheeseman, G. Scalmani, V. Barone, 
 G. A. Petersson, H. Nakatsuji, X. Li, M. Caricato, A. V. Marenich, 
 J. Bloino, B. G. Janesko, R. Gomperts, B. Mennucci, H. P. Hratchian, 
 J. V. Ortiz, A. F. Izmaylov, J. L. Sonnenberg, D. Williams-Young, 
 F. Ding, F. Lipparini, F. Egidi, J. Goings, B. Peng, A. Petrone, 
 T. Henderson, D. Ranasinghe, V. G. Zakrzewski, J. Gao, N. Rega, 
 G. Zheng, W. Liang, M. Hada, M. Ehara, K. Toyota, R. Fukuda, 
 J. Hasegawa, M. Ishida, T. Nakajima, Y. Honda, O. Kitao, H. Nakai, 
 T. Vreven, K. Throssell, J. A. Montgomery, Jr., J. E. Peralta, 
 F. Ogliaro, M. J. Bearpark, J. J. Heyd, E. N. Brothers, K. N. Kudin, 
 V. N. Staroverov, T. A. Keith, R. Kobayashi, J. Normand, 
 K. Raghavachari, A. P. Rendell, J. C. Burant, S. S. Iyengar, 
 J. Tomasi, M. Cossi, J. M. Millam, M. Klene, C. Adamo, R. Cammi, 
 J. W. Ochterski, R. L. Martin, K. Morokuma, O. Farkas, 
 J. B. Foresman, and D. J. Fox, Gaussian, Inc., Wallingford CT, 2016.
 
 ******************************************
 Gaussian 16:  ES64L-G16RevA.03 25-Dec-2016
                16-Mar-2023 
 ******************************************
 %NProcShared=12
 Will use up to   12 processors via shared memory.
 %Chk=checkpoint.chk
 -----------------------------------------------
 # wB97XD Gen SCRF=(Solvent=TetraHydroFuran) Opt
 -----------------------------------------------
 1/18=20,19=15,26=3,38=1/1,3;
 2/9=110,12=2,17=6,18=5,40=1/2;
 3/5=7,11=2,25=1,30=1,70=2201,71=1,72=20,74=-58/1,2,3;
 4//1;
 5/5=2,38=5,53=20/2;
 6/7=2,8=2,9=2,10=2,28=1/1;
 7//1,2,3,16;
 1/18=20,19=15,26=3/3(2);
 2/9=110/2;
 99//99;
 2/9=110/2;
 3/5=7,6=1,11=2,25=1,30=1,70=2205,71=1,72=20,74=-58,82=7/1,2,3;
 4/5=5,16=3,69=1/1;
 5/5=2,38=5,53=20/2;
 7//1,2,3,16;
 1/18=20,19=15,26=3/3(-5);
 2/9=110/2;
 6/7=2,8=2,9=2,10=2,19=2,28=1/1;
 99/9=1/99;
 ------------------------
 Thian React Optimization
 ------------------------
 Symbolic Z-matrix:
 Charge =  0 Multiplicity = 1
 Mn                    8.61564   3.04629   14.7607 
 C                     10.21396   3.6436    15.4293 
 O                     11.22487   3.93738   15.86875 
 C                     8.9574    3.75282   13.10526 
 O                     9.15418   4.13703   12.04908 
 C                     9.43671   1.50443   14.25827 
 N                     6.65512   2.40028   14.02027 
 C                     4.51204   2.98077   13.11518 
 C                     4.07227   1.66628   13.24514 
 C                     6.24194   1.1325    14.09169 
 H                     3.86051   3.75927   12.71488 
 H                     3.05462   1.38477   12.96261 
 N                     7.65962   4.72516   15.35325 
 C                     7.13184   5.68196   15.7197 
 C                     6.43175   6.83046   16.22017 
 C                     5.21497   6.63874   16.89319 
 C                     4.54023   7.7451    17.39686 
 C                     6.97479   8.11122   16.04618 
 H                     4.81051   5.63137   17.01619 
 H                     7.93008   8.21543   15.51791 
 N                     8.13012   2.28636   16.76442 
 C                     7.75486   2.72519   19.09142 
 C                     7.32647   1.4164    19.29552 
 H                     7.78496   3.4459    19.91028 
 C                     5.79773   3.30674   13.52061 
 H                     6.15516   4.33457   13.43941 
 C                     8.13682   3.12071   17.81802 
 H                     8.46346   4.14626   17.63765 
 H                     3.59258   7.60985   17.92323 
 O                     9.99676   0.56371   13.91998 
 S                     4.76716  -0.32635   16.66635 
 S                     4.0372   -3.41551   16.9314 
 C                     4.95514   0.71273   13.75023 
 C                     4.5734   -0.71729   13.92778 
 C                     4.24643  -1.48956   12.80812 
 C                     3.91463  -2.83542   12.94052 
 C                     3.90497  -3.43191   14.19774 
 C                     4.18718  -2.66563   15.33083 
 C                     4.52085  -1.31014   15.20396 
 H                     4.27463  -1.02564   11.81896 
 H                     3.67431  -3.42887   12.05549 
 H                     3.66699  -4.49285   14.3069 
 C                     5.8012   -1.40306   17.63494 
 C                     5.46127  -2.75745   17.75911 
 C                     6.20717  -3.60033   18.58593 
 C                     7.26788  -3.08238   19.32238 
 C                     7.61154  -1.73857   19.20186 
 C                     6.90338  -0.88864   18.34489 
 H                     5.94614  -4.65905   18.65724 
 H                     7.84267  -3.73581   19.98261 
 H                     8.45932  -1.33739   19.76289 
 C                     7.32841   0.53481   18.21519 
 H                     6.99261   1.08281   20.28145 
 C                     7.7691    1.01922   16.98175 
 H                     7.83213   0.32673   16.1428 
 H                     6.96115   0.38618   14.42992 
 C                     5.0748    9.02468   17.22955 
 C                     6.28416   9.20636   16.55729 
 H                     6.69646   10.21027   16.43156 
 H                     4.5414    9.89074   17.63006 
 Br                    6.02794   6.26475   12.3977 
 
 Add virtual bond connecting atoms N7         and Mn1        Dist= 4.14D+00.
 Add virtual bond connecting atoms N21        and Mn1        Dist= 4.15D+00.
 Add virtual bond connecting atoms Br61       and H26        Dist= 4.15D+00.

 GradGradGradGradGradGradGradGradGradGradGradGradGradGradGradGradGradGrad
 Berny optimization.
 Initialization pass.
                           ----------------------------
                           !    Initial Parameters    !
                           ! (Angstroms and Degrees)  !
 --------------------------                            --------------------------
 ! Name  Definition              Value          Derivative Info.                !
 --------------------------------------------------------------------------------
 ! R1    R(1,2)                  1.8326         estimate D2E/DX2                !
 ! R2    R(1,4)                  1.8321         estimate D2E/DX2                !
 ! R3    R(1,6)                  1.8177         estimate D2E/DX2                !
 ! R4    R(1,7)                  2.193          estimate D2E/DX2                !
 ! R5    R(1,13)                 2.0208         estimate D2E/DX2                !
 ! R6    R(1,21)                 2.1973         estimate D2E/DX2                !
 ! R7    R(2,3)                  1.1408         estimate D2E/DX2                !
 ! R8    R(4,5)                  1.141          estimate D2E/DX2                !
 ! R9    R(6,30)                 1.1459         estimate D2E/DX2                !
 ! R10   R(7,10)                 1.3353         estimate D2E/DX2                !
 ! R11   R(7,25)                 1.344          estimate D2E/DX2                !
 ! R12   R(8,9)                  1.3922         estimate D2E/DX2                !
 ! R13   R(8,11)                 1.0912         estimate D2E/DX2                !
 ! R14   R(8,25)                 1.387          estimate D2E/DX2                !
 ! R15   R(9,12)                 1.093          estimate D2E/DX2                !
 ! R16   R(9,33)                 1.3942         estimate D2E/DX2                !
 ! R17   R(10,33)                1.3959         estimate D2E/DX2                !
 ! R18   R(10,56)                1.0903         estimate D2E/DX2                !
 ! R19   R(13,14)                1.1525         estimate D2E/DX2                !
 ! R20   R(14,15)                1.4351         estimate D2E/DX2                !
 ! R21   R(15,16)                1.4037         estimate D2E/DX2                !
 ! R22   R(15,18)                1.402          estimate D2E/DX2                !
 ! R23   R(16,17)                1.3903         estimate D2E/DX2                !
 ! R24   R(16,19)                1.0925         estimate D2E/DX2                !
 ! R25   R(17,29)                1.0924         estimate D2E/DX2                !
 ! R26   R(17,57)                1.3968         estimate D2E/DX2                !
 ! R27   R(18,20)                1.0966         estimate D2E/DX2                !
 ! R28   R(18,58)                1.392          estimate D2E/DX2                !
 ! R29   R(21,27)                1.344          estimate D2E/DX2                !
 ! R30   R(21,54)                1.3354         estimate D2E/DX2                !
 ! R31   R(22,23)                1.3922         estimate D2E/DX2                !
 ! R32   R(22,24)                1.0913         estimate D2E/DX2                !
 ! R33   R(22,27)                1.387          estimate D2E/DX2                !
 ! R34   R(23,52)                1.3944         estimate D2E/DX2                !
 ! R35   R(23,53)                1.0931         estimate D2E/DX2                !
 ! R36   R(25,26)                1.0912         estimate D2E/DX2                !
 ! R37   R(26,61)                2.197          estimate D2E/DX2                !
 ! R38   R(27,28)                1.0913         estimate D2E/DX2                !
 ! R39   R(31,39)                1.7796         estimate D2E/DX2                !
 ! R40   R(31,43)                1.7795         estimate D2E/DX2                !
 ! R41   R(32,38)                1.7739         estimate D2E/DX2                !
 ! R42   R(32,44)                1.7737         estimate D2E/DX2                !
 ! R43   R(33,34)                1.4907         estimate D2E/DX2                !
 ! R44   R(34,35)                1.3989         estimate D2E/DX2                !
 ! R45   R(34,39)                1.4081         estimate D2E/DX2                !
 ! R46   R(35,36)                1.3925         estimate D2E/DX2                !
 ! R47   R(35,40)                1.0929         estimate D2E/DX2                !
 ! R48   R(36,37)                1.3916         estimate D2E/DX2                !
 ! R49   R(36,41)                1.0924         estimate D2E/DX2                !
 ! R50   R(37,38)                1.3967         estimate D2E/DX2                !
 ! R51   R(37,42)                1.0928         estimate D2E/DX2                !
 ! R52   R(38,39)                1.4017         estimate D2E/DX2                !
 ! R53   R(43,44)                1.4019         estimate D2E/DX2                !
 ! R54   R(43,48)                1.4083         estimate D2E/DX2                !
 ! R55   R(44,45)                1.3966         estimate D2E/DX2                !
 ! R56   R(45,46)                1.3913         estimate D2E/DX2                !
 ! R57   R(45,49)                1.0928         estimate D2E/DX2                !
 ! R58   R(46,47)                1.3923         estimate D2E/DX2                !
 ! R59   R(46,50)                1.0924         estimate D2E/DX2                !
 ! R60   R(47,48)                1.3994         estimate D2E/DX2                !
 ! R61   R(47,51)                1.0929         estimate D2E/DX2                !
 ! R62   R(48,52)                1.4912         estimate D2E/DX2                !
 ! R63   R(52,54)                1.3965         estimate D2E/DX2                !
 ! R64   R(54,55)                1.0897         estimate D2E/DX2                !
 ! R65   R(57,58)                1.3955         estimate D2E/DX2                !
 ! R66   R(57,60)                1.0932         estimate D2E/DX2                !
 ! R67   R(58,59)                1.0925         estimate D2E/DX2                !
 ! A1    A(2,1,4)               92.3653         estimate D2E/DX2                !
 ! A2    A(2,1,6)               89.0464         estimate D2E/DX2                !
 ! A3    A(2,1,13)              91.997          estimate D2E/DX2                !
 ! A4    A(2,1,21)              88.4381         estimate D2E/DX2                !
 ! A5    A(4,1,6)               89.6045         estimate D2E/DX2                !
 ! A6    A(4,1,7)               88.584          estimate D2E/DX2                !
 ! A7    A(4,1,13)              91.8808         estimate D2E/DX2                !
 ! A8    A(6,1,7)               93.4753         estimate D2E/DX2                !
 ! A9    A(6,1,21)              93.3539         estimate D2E/DX2                !
 ! A10   A(7,1,13)              85.4575         estimate D2E/DX2                !
 ! A11   A(7,1,21)              90.4856         estimate D2E/DX2                !
 ! A12   A(13,1,21)             85.147          estimate D2E/DX2                !
 ! A13   A(1,7,10)             122.5645         estimate D2E/DX2                !
 ! A14   A(1,7,25)             119.8109         estimate D2E/DX2                !
 ! A15   A(10,7,25)            117.5685         estimate D2E/DX2                !
 ! A16   A(9,8,11)             121.2814         estimate D2E/DX2                !
 ! A17   A(9,8,25)             119.1726         estimate D2E/DX2                !
 ! A18   A(11,8,25)            119.54           estimate D2E/DX2                !
 ! A19   A(8,9,12)             120.8744         estimate D2E/DX2                !
 ! A20   A(8,9,33)             118.6564         estimate D2E/DX2                !
 ! A21   A(12,9,33)            120.4685         estimate D2E/DX2                !
 ! A22   A(7,10,33)            123.8934         estimate D2E/DX2                !
 ! A23   A(7,10,56)            117.5412         estimate D2E/DX2                !
 ! A24   A(33,10,56)           118.5635         estimate D2E/DX2                !
 ! A25   A(14,15,16)           118.7357         estimate D2E/DX2                !
 ! A26   A(14,15,18)           119.9241         estimate D2E/DX2                !
 ! A27   A(16,15,18)           121.3357         estimate D2E/DX2                !
 ! A28   A(15,16,17)           119.0591         estimate D2E/DX2                !
 ! A29   A(15,16,19)           120.0569         estimate D2E/DX2                !
 ! A30   A(17,16,19)           120.884          estimate D2E/DX2                !
 ! A31   A(16,17,29)           119.8038         estimate D2E/DX2                !
 ! A32   A(16,17,57)           119.9898         estimate D2E/DX2                !
 ! A33   A(29,17,57)           120.2064         estimate D2E/DX2                !
 ! A34   A(15,18,20)           118.9494         estimate D2E/DX2                !
 ! A35   A(15,18,58)           118.7504         estimate D2E/DX2                !
 ! A36   A(20,18,58)           122.2994         estimate D2E/DX2                !
 ! A37   A(1,21,27)            119.9387         estimate D2E/DX2                !
 ! A38   A(1,21,54)            122.4337         estimate D2E/DX2                !
 ! A39   A(27,21,54)           117.5715         estimate D2E/DX2                !
 ! A40   A(23,22,24)           121.2895         estimate D2E/DX2                !
 ! A41   A(23,22,27)           119.1704         estimate D2E/DX2                !
 ! A42   A(24,22,27)           119.5367         estimate D2E/DX2                !
 ! A43   A(22,23,52)           118.7096         estimate D2E/DX2                !
 ! A44   A(22,23,53)           120.8729         estimate D2E/DX2                !
 ! A45   A(52,23,53)           120.4174         estimate D2E/DX2                !
 ! A46   A(7,25,8)             122.7866         estimate D2E/DX2                !
 ! A47   A(7,25,26)            116.9986         estimate D2E/DX2                !
 ! A48   A(8,25,26)            120.2146         estimate D2E/DX2                !
 ! A49   A(25,26,61)           147.5456         estimate D2E/DX2                !
 ! A50   A(21,27,22)           122.7734         estimate D2E/DX2                !
 ! A51   A(21,27,28)           117.0858         estimate D2E/DX2                !
 ! A52   A(22,27,28)           120.1407         estimate D2E/DX2                !
 ! A53   A(39,31,43)           101.1404         estimate D2E/DX2                !
 ! A54   A(38,32,44)           101.3227         estimate D2E/DX2                !
 ! A55   A(9,33,10)            117.8189         estimate D2E/DX2                !
 ! A56   A(9,33,34)            122.4855         estimate D2E/DX2                !
 ! A57   A(10,33,34)           119.6952         estimate D2E/DX2                !
 ! A58   A(33,34,35)           119.6106         estimate D2E/DX2                !
 ! A59   A(33,34,39)           121.4251         estimate D2E/DX2                !
 ! A60   A(35,34,39)           118.9614         estimate D2E/DX2                !
 ! A61   A(34,35,36)           120.8752         estimate D2E/DX2                !
 ! A62   A(34,35,40)           118.949          estimate D2E/DX2                !
 ! A63   A(36,35,40)           120.1641         estimate D2E/DX2                !
 ! A64   A(35,36,37)           120.1229         estimate D2E/DX2                !
 ! A65   A(35,36,41)           120.0321         estimate D2E/DX2                !
 ! A66   A(37,36,41)           119.8399         estimate D2E/DX2                !
 ! A67   A(36,37,38)           119.7596         estimate D2E/DX2                !
 ! A68   A(36,37,42)           120.5252         estimate D2E/DX2                !
 ! A69   A(38,37,42)           119.7114         estimate D2E/DX2                !
 ! A70   A(32,38,37)           118.8811         estimate D2E/DX2                !
 ! A71   A(32,38,39)           120.7037         estimate D2E/DX2                !
 ! A72   A(37,38,39)           120.346          estimate D2E/DX2                !
 ! A73   A(31,39,34)           120.4519         estimate D2E/DX2                !
 ! A74   A(31,39,38)           119.5476         estimate D2E/DX2                !
 ! A75   A(34,39,38)           119.8715         estimate D2E/DX2                !
 ! A76   A(31,43,44)           119.4628         estimate D2E/DX2                !
 ! A77   A(31,43,48)           120.5391         estimate D2E/DX2                !
 ! A78   A(44,43,48)           119.8677         estimate D2E/DX2                !
 ! A79   A(32,44,43)           120.7821         estimate D2E/DX2                !
 ! A80   A(32,44,45)           118.7613         estimate D2E/DX2                !
 ! A81   A(43,44,45)           120.398          estimate D2E/DX2                !
 ! A82   A(44,45,46)           119.7277         estimate D2E/DX2                !
 ! A83   A(44,45,49)           119.7213         estimate D2E/DX2                !
 ! A84   A(46,45,49)           120.5477         estimate D2E/DX2                !
 ! A85   A(45,46,47)           120.1111         estimate D2E/DX2                !
 ! A86   A(45,46,50)           119.8939         estimate D2E/DX2                !
 ! A87   A(47,46,50)           119.9861         estimate D2E/DX2                !
 ! A88   A(46,47,48)           120.9516         estimate D2E/DX2                !
 ! A89   A(46,47,51)           120.0889         estimate D2E/DX2                !
 ! A90   A(48,47,51)           118.9444         estimate D2E/DX2                !
 ! A91   A(43,48,47)           118.8747         estimate D2E/DX2                !
 ! A92   A(43,48,52)           121.8629         estimate D2E/DX2                !
 ! A93   A(47,48,52)           119.261          estimate D2E/DX2                !
 ! A94   A(23,52,48)           122.394          estimate D2E/DX2                !
 ! A95   A(23,52,54)           117.7379         estimate D2E/DX2                !
 ! A96   A(48,52,54)           119.8596         estimate D2E/DX2                !
 ! A97   A(21,54,52)           123.9321         estimate D2E/DX2                !
 ! A98   A(21,54,55)           117.5226         estimate D2E/DX2                !
 ! A99   A(52,54,55)           118.5437         estimate D2E/DX2                !
 ! A100  A(17,57,58)           120.5714         estimate D2E/DX2                !
 ! A101  A(17,57,60)           119.6788         estimate D2E/DX2                !
 ! A102  A(58,57,60)           119.7498         estimate D2E/DX2                !
 ! A103  A(18,58,57)           120.2936         estimate D2E/DX2                !
 ! A104  A(18,58,59)           119.5674         estimate D2E/DX2                !
 ! A105  A(57,58,59)           120.1387         estimate D2E/DX2                !
 ! A106  L(2,1,7,4,-1)         180.9492         estimate D2E/DX2                !
 ! A107  L(4,1,21,2,-1)        180.8033         estimate D2E/DX2                !
 ! A108  L(6,1,13,2,-1)        181.0435         estimate D2E/DX2                !
 ! A109  L(1,2,3,18,-1)        183.5947         estimate D2E/DX2                !
 ! A110  L(1,4,5,8,-1)         178.6897         estimate D2E/DX2                !
 ! A111  L(1,6,30,10,-1)       182.3857         estimate D2E/DX2                !
 ! A112  L(1,13,14,8,-1)       181.3966         estimate D2E/DX2                !
 ! A113  L(13,14,15,11,-1)     179.2392         estimate D2E/DX2                !
 ! A114  L(2,1,7,4,-2)         182.5154         estimate D2E/DX2                !
 ! A115  L(4,1,21,2,-2)        177.0536         estimate D2E/DX2                !
 ! A116  L(6,1,13,2,-2)        181.5308         estimate D2E/DX2                !
 ! A117  L(1,2,3,18,-2)        177.8265         estimate D2E/DX2                !
 ! A118  L(1,4,5,8,-2)         182.984          estimate D2E/DX2                !
 ! A119  L(1,6,30,10,-2)       178.3342         estimate D2E/DX2                !
 ! A120  L(1,13,14,8,-2)       179.0869         estimate D2E/DX2                !
 ! A121  L(13,14,15,11,-2)     177.0346         estimate D2E/DX2                !
 ! D1    D(4,1,7,10)           125.1861         estimate D2E/DX2                !
 ! D2    D(4,1,7,25)           -57.605          estimate D2E/DX2                !
 ! D3    D(6,1,7,10)            35.6684         estimate D2E/DX2                !
 ! D4    D(6,1,7,25)          -147.1227         estimate D2E/DX2                !
 ! D5    D(13,1,7,10)         -142.8141         estimate D2E/DX2                !
 ! D6    D(13,1,7,25)           34.3948         estimate D2E/DX2                !
 ! D7    D(21,1,7,10)          -57.7213         estimate D2E/DX2                !
 ! D8    D(21,1,7,25)          119.4876         estimate D2E/DX2                !
 ! D9    D(2,1,15,16)         -133.3093         estimate D2E/DX2                !
 ! D10   D(2,1,15,18)           44.4484         estimate D2E/DX2                !
 ! D11   D(4,1,15,16)          134.2201         estimate D2E/DX2                !
 ! D12   D(4,1,15,18)          -48.0223         estimate D2E/DX2                !
 ! D13   D(7,1,15,16)           45.8921         estimate D2E/DX2                !
 ! D14   D(7,1,15,18)         -136.3502         estimate D2E/DX2                !
 ! D15   D(21,1,15,16)         -45.0719         estimate D2E/DX2                !
 ! D16   D(21,1,15,18)         132.6857         estimate D2E/DX2                !
 ! D17   D(2,1,21,27)           56.4211         estimate D2E/DX2                !
 ! D18   D(2,1,21,54)         -126.3704         estimate D2E/DX2                !
 ! D19   D(6,1,21,27)          145.374          estimate D2E/DX2                !
 ! D20   D(6,1,21,54)          -37.4176         estimate D2E/DX2                !
 ! D21   D(7,1,21,27)         -121.1162         estimate D2E/DX2                !
 ! D22   D(7,1,21,54)           56.0923         estimate D2E/DX2                !
 ! D23   D(13,1,21,27)         -35.7166         estimate D2E/DX2                !
 ! D24   D(13,1,21,54)         141.4919         estimate D2E/DX2                !
 ! D25   D(1,7,10,33)          173.524          estimate D2E/DX2                !
 ! D26   D(1,7,10,56)           -7.0004         estimate D2E/DX2                !
 ! D27   D(25,7,10,33)          -3.7441         estimate D2E/DX2                !
 ! D28   D(25,7,10,56)         175.7315         estimate D2E/DX2                !
 ! D29   D(1,7,25,8)          -175.7598         estimate D2E/DX2                !
 ! D30   D(1,7,25,26)            4.3878         estimate D2E/DX2                !
 ! D31   D(10,7,25,8)            1.5867         estimate D2E/DX2                !
 ! D32   D(10,7,25,26)        -178.2657         estimate D2E/DX2                !
 ! D33   D(11,8,9,12)           -0.9612         estimate D2E/DX2                !
 ! D34   D(11,8,9,33)          179.3387         estimate D2E/DX2                !
 ! D35   D(25,8,9,12)          178.1432         estimate D2E/DX2                !
 ! D36   D(25,8,9,33)           -1.557          estimate D2E/DX2                !
 ! D37   D(9,8,25,7)             1.0087         estimate D2E/DX2                !
 ! D38   D(9,8,25,26)         -179.1434         estimate D2E/DX2                !
 ! D39   D(11,8,25,7)         -179.871          estimate D2E/DX2                !
 ! D40   D(11,8,25,26)          -0.0232         estimate D2E/DX2                !
 ! D41   D(8,9,33,10)           -0.3821         estimate D2E/DX2                !
 ! D42   D(8,9,33,34)          179.8679         estimate D2E/DX2                !
 ! D43   D(12,9,33,10)         179.9166         estimate D2E/DX2                !
 ! D44   D(12,9,33,34)           0.1665         estimate D2E/DX2                !
 ! D45   D(7,10,33,9)            3.1713         estimate D2E/DX2                !
 ! D46   D(7,10,33,34)        -177.0715         estimate D2E/DX2                !
 ! D47   D(56,10,33,9)        -176.2993         estimate D2E/DX2                !
 ! D48   D(56,10,33,34)          3.4579         estimate D2E/DX2                !
 ! D49   D(14,15,16,17)        179.126          estimate D2E/DX2                !
 ! D50   D(14,15,16,19)         -0.8313         estimate D2E/DX2                !
 ! D51   D(18,15,16,17)         -0.0918         estimate D2E/DX2                !
 ! D52   D(18,15,16,19)        179.9508         estimate D2E/DX2                !
 ! D53   D(14,15,18,20)          0.532          estimate D2E/DX2                !
 ! D54   D(14,15,18,58)       -179.1344         estimate D2E/DX2                !
 ! D55   D(16,15,18,20)        179.7407         estimate D2E/DX2                !
 ! D56   D(16,15,18,58)          0.0743         estimate D2E/DX2                !
 ! D57   D(15,16,17,29)       -179.9637         estimate D2E/DX2                !
 ! D58   D(15,16,17,57)          0.0098         estimate D2E/DX2                !
 ! D59   D(19,16,17,29)         -0.0067         estimate D2E/DX2                !
 ! D60   D(19,16,17,57)        179.9667         estimate D2E/DX2                !
 ! D61   D(16,17,57,58)          0.0886         estimate D2E/DX2                !
 ! D62   D(16,17,57,60)       -179.8302         estimate D2E/DX2                !
 ! D63   D(29,17,57,58)       -179.9381         estimate D2E/DX2                !
 ! D64   D(29,17,57,60)          0.1432         estimate D2E/DX2                !
 ! D65   D(15,18,58,57)          0.0251         estimate D2E/DX2                !
 ! D66   D(15,18,58,59)        179.8428         estimate D2E/DX2                !
 ! D67   D(20,18,58,57)       -179.6296         estimate D2E/DX2                !
 ! D68   D(20,18,58,59)          0.1881         estimate D2E/DX2                !
 ! D69   D(1,21,27,22)         175.6299         estimate D2E/DX2                !
 ! D70   D(1,21,27,28)          -4.5457         estimate D2E/DX2                !
 ! D71   D(54,21,27,22)         -1.7122         estimate D2E/DX2                !
 ! D72   D(54,21,27,28)        178.1122         estimate D2E/DX2                !
 ! D73   D(1,21,54,52)        -173.4691         estimate D2E/DX2                !
 ! D74   D(1,21,54,55)           6.9972         estimate D2E/DX2                !
 ! D75   D(27,21,54,52)          3.802          estimate D2E/DX2                !
 ! D76   D(27,21,54,55)       -175.7317         estimate D2E/DX2                !
 ! D77   D(24,22,23,52)       -179.0598         estimate D2E/DX2                !
 ! D78   D(24,22,23,53)          1.0489         estimate D2E/DX2                !
 ! D79   D(27,22,23,52)          1.6181         estimate D2E/DX2                !
 ! D80   D(27,22,23,53)       -178.2733         estimate D2E/DX2                !
 ! D81   D(23,22,27,21)         -0.9402         estimate D2E/DX2                !
 ! D82   D(23,22,27,28)        179.2406         estimate D2E/DX2                !
 ! D83   D(24,22,27,21)        179.7257         estimate D2E/DX2                !
 ! D84   D(24,22,27,28)         -0.0936         estimate D2E/DX2                !
 ! D85   D(22,23,52,48)        179.1964         estimate D2E/DX2                !
 ! D86   D(22,23,52,54)          0.2572         estimate D2E/DX2                !
 ! D87   D(53,23,52,48)         -0.9118         estimate D2E/DX2                !
 ! D88   D(53,23,52,54)       -179.851          estimate D2E/DX2                !
 ! D89   D(7,25,26,61)         152.1213         estimate D2E/DX2                !
 ! D90   D(8,25,26,61)         -27.7351         estimate D2E/DX2                !
 ! D91   D(43,31,39,34)       -137.9858         estimate D2E/DX2                !
 ! D92   D(43,31,39,38)         46.1486         estimate D2E/DX2                !
 ! D93   D(39,31,43,44)        -46.3289         estimate D2E/DX2                !
 ! D94   D(39,31,43,48)        137.8275         estimate D2E/DX2                !
 ! D95   D(44,32,38,37)        139.1574         estimate D2E/DX2                !
 ! D96   D(44,32,38,39)        -43.8596         estimate D2E/DX2                !
 ! D97   D(38,32,44,43)         43.6728         estimate D2E/DX2                !
 ! D98   D(38,32,44,45)       -139.099          estimate D2E/DX2                !
 ! D99   D(9,33,34,35)          63.6269         estimate D2E/DX2                !
 ! D100  D(9,33,34,39)        -115.7413         estimate D2E/DX2                !
 ! D101  D(10,33,34,35)       -116.1186         estimate D2E/DX2                !
 ! D102  D(10,33,34,39)         64.5133         estimate D2E/DX2                !
 ! D103  D(33,34,35,36)        178.5788         estimate D2E/DX2                !
 ! D104  D(33,34,35,40)         -0.175          estimate D2E/DX2                !
 ! D105  D(39,34,35,36)         -2.0375         estimate D2E/DX2                !
 ! D106  D(39,34,35,40)        179.2087         estimate D2E/DX2                !
 ! D107  D(33,34,39,31)          5.5876         estimate D2E/DX2                !
 ! D108  D(33,34,39,38)       -178.5601         estimate D2E/DX2                !
 ! D109  D(35,34,39,31)       -173.7845         estimate D2E/DX2                !
 ! D110  D(35,34,39,38)          2.0677         estimate D2E/DX2                !
 ! D111  D(34,35,36,37)         -0.0222         estimate D2E/DX2                !
 ! D112  D(34,35,36,41)       -179.1978         estimate D2E/DX2                !
 ! D113  D(40,35,36,37)        178.7166         estimate D2E/DX2                !
 ! D114  D(40,35,36,41)         -0.4591         estimate D2E/DX2                !
 ! D115  D(35,36,37,38)          2.0577         estimate D2E/DX2                !
 ! D116  D(35,36,37,42)       -178.6506         estimate D2E/DX2                !
 ! D117  D(41,36,37,38)       -178.765          estimate D2E/DX2                !
 ! D118  D(41,36,37,42)          0.5266         estimate D2E/DX2                !
 ! D119  D(36,37,38,32)        174.9832         estimate D2E/DX2                !
 ! D120  D(36,37,38,39)         -2.0108         estimate D2E/DX2                !
 ! D121  D(42,37,38,32)         -4.3143         estimate D2E/DX2                !
 ! D122  D(42,37,38,39)        178.6917         estimate D2E/DX2                !
 ! D123  D(32,38,39,31)         -1.1138         estimate D2E/DX2                !
 ! D124  D(32,38,39,34)       -177.0038         estimate D2E/DX2                !
 ! D125  D(37,38,39,31)        175.825          estimate D2E/DX2                !
 ! D126  D(37,38,39,34)         -0.065          estimate D2E/DX2                !
 ! D127  D(31,43,44,32)          1.4799         estimate D2E/DX2                !
 ! D128  D(31,43,44,45)       -175.7029         estimate D2E/DX2                !
 ! D129  D(48,43,44,32)        177.3518         estimate D2E/DX2                !
 ! D130  D(48,43,44,45)          0.169          estimate D2E/DX2                !
 ! D131  D(31,43,48,47)        173.5912         estimate D2E/DX2                !
 ! D132  D(31,43,48,52)         -5.9821         estimate D2E/DX2                !
 ! D133  D(44,43,48,47)         -2.2356         estimate D2E/DX2                !
 ! D134  D(44,43,48,52)        178.1911         estimate D2E/DX2                !
 ! D135  D(32,44,45,46)       -175.2251         estimate D2E/DX2                !
 ! D136  D(32,44,45,49)          4.1245         estimate D2E/DX2                !
 ! D137  D(43,44,45,46)          2.0141         estimate D2E/DX2                !
 ! D138  D(43,44,45,49)       -178.6364         estimate D2E/DX2                !
 ! D139  D(44,45,46,47)         -2.0989         estimate D2E/DX2                !
 ! D140  D(44,45,46,50)        178.9864         estimate D2E/DX2                !
 ! D141  D(49,45,46,47)        178.557          estimate D2E/DX2                !
 ! D142  D(49,45,46,50)         -0.3576         estimate D2E/DX2                !
 ! D143  D(45,46,47,48)         -0.0054         estimate D2E/DX2                !
 ! D144  D(45,46,47,51)       -178.5797         estimate D2E/DX2                !
 ! D145  D(50,46,47,48)        178.9083         estimate D2E/DX2                !
 ! D146  D(50,46,47,51)          0.334          estimate D2E/DX2                !
 ! D147  D(46,47,48,43)          2.1695         estimate D2E/DX2                !
 ! D148  D(46,47,48,52)       -178.246          estimate D2E/DX2                !
 ! D149  D(51,47,48,43)       -179.2402         estimate D2E/DX2                !
 ! D150  D(51,47,48,52)          0.3443         estimate D2E/DX2                !
 ! D151  D(43,48,52,23)        118.0827         estimate D2E/DX2                !
 ! D152  D(43,48,52,54)        -62.9999         estimate D2E/DX2                !
 ! D153  D(47,48,52,23)        -61.489          estimate D2E/DX2                !
 ! D154  D(47,48,52,54)        117.4284         estimate D2E/DX2                !
 ! D155  D(23,52,54,21)         -3.103          estimate D2E/DX2                !
 ! D156  D(23,52,54,55)        176.4263         estimate D2E/DX2                !
 ! D157  D(48,52,54,21)        177.9299         estimate D2E/DX2                !
 ! D158  D(48,52,54,55)         -2.5409         estimate D2E/DX2                !
 ! D159  D(17,57,58,18)         -0.1065         estimate D2E/DX2                !
 ! D160  D(17,57,58,59)       -179.9232         estimate D2E/DX2                !
 ! D161  D(60,57,58,18)        179.8122         estimate D2E/DX2                !
 ! D162  D(60,57,58,59)         -0.0045         estimate D2E/DX2                !
 --------------------------------------------------------------------------------
 Trust Radius=3.00D-01 FncErr=1.00D-07 GrdErr=1.00D-06 EigMax=2.50D+02 EigMin=1.00D-04
 Number of steps in this run=    360 maximum allowed number of steps=    366.
 GradGradGradGradGradGradGradGradGradGradGradGradGradGradGradGradGradGrad

 Stoichiometry    C32H19BrMnN3O3S2
 Framework group  C1[X(C32H19BrMnN3O3S2)]
 Deg. of freedom   177
 Full point group                 C1      NOp   1
 Largest Abelian subgroup         C1      NOp   1
 Largest concise Abelian subgroup C1      NOp   1
                         Standard orientation:                         
 ---------------------------------------------------------------------
 Center     Atomic      Atomic             Coordinates (Angstroms)
 Number     Number       Type             X           Y           Z
 ---------------------------------------------------------------------
      1         25           0       -1.370137   -0.421393    1.910102
      2          6           0       -2.068561   -1.807806    2.884019
      3          8           0       -2.425812   -2.689961    3.512923
      4          6           0       -2.447867    0.805185    2.741044
      5          8           0       -3.067790    1.604871    3.268370
      6          6           0       -0.118720   -0.181229    3.206333
      7          7           0       -0.580685    1.199220    0.661270
      8          6           0       -0.979125    2.912052   -0.968587
      9          6           0        0.387561    3.144399   -1.096424
     10          6           0        0.724571    1.465900    0.570339
     11          1           0       -1.706980    3.476245   -1.553989
     12          1           0        0.766343    3.889757   -1.800449
     13          7           0       -2.713327   -0.694731    0.425243
     14          6           0       -3.475690   -0.883682   -0.418212
     15          6           0       -4.367517   -1.133586   -1.514489
     16          6           0       -3.846582   -1.150750   -2.817794
     17          6           0       -4.701198   -1.410369   -3.883261
     18          6           0       -5.727471   -1.370463   -1.269713
     19          1           0       -2.783443   -0.962557   -2.984648
     20          1           0       -6.091746   -1.351944   -0.235563
     21          7           0       -0.145914   -1.883819    0.818901
     22          6           0       -0.030007   -3.815323   -0.596780
     23          6           0        1.344581   -3.654249   -0.747338
     24          1           0       -0.562047   -4.632064   -1.087418
     25          6           0       -1.419046    1.930869   -0.092574
     26          1           0       -2.485704    1.724985    0.010618
     27          6           0       -0.735561   -2.909718    0.181652
     28          1           0       -1.815400   -3.013763    0.300358
     29          1           0       -4.308605   -1.427251   -4.902568
     30          8           0        0.628662   -0.033652    4.062304
     31         16           0        2.901285    0.028973   -1.461705
     32         16           0        6.055553    0.472048   -1.479561
     33          6           0        1.268353    2.401555   -0.311424
     34          6           0        2.746902    2.578249   -0.381208
     35          6           0        3.315049    3.801789   -0.010913
     36          6           0        4.694981    3.986175   -0.037897
     37          6           0        5.530731    2.947224   -0.436150
     38          6           0        4.978394    1.732932   -0.849852
     39          6           0        3.589998    1.541747   -0.825852
     40          1           0        2.659355    4.610414    0.321726
     41          1           0        5.124734    4.943153    0.266638
     42          1           0        6.615686    3.077586   -0.438817
     43          6           0        3.971703   -1.178321   -0.711128
     44          6           0        5.359505   -0.982002   -0.739714
     45          6           0        6.221877   -1.958613   -0.236734
     46          6           0        5.701268   -3.150610    0.257060
     47          6           0        4.323829   -3.350674    0.289885
     48          6           0        3.442319   -2.365465   -0.169019
     49          1           0        7.300656   -1.784564   -0.244105
     50          1           0        6.374333   -3.923125    0.635832
     51          1           0        3.914395   -4.277616    0.699241
     52          6           0        1.972924   -2.603443   -0.080026
     53          1           0        1.923455   -4.334962   -1.376897
     54          6           0        1.180263   -1.769814    0.711795
     55          1           0        1.665826   -0.981001    1.285703
     56          1           0        1.397627    0.922012    1.233545
     57          6           0       -6.057269   -1.649147   -3.648434
     58          6           0       -6.567149   -1.628149   -2.349558
     59          1           0       -7.628779   -1.817123   -2.173874
     60          1           0       -6.724133   -1.855493   -4.489678
     61         35           0       -4.542023    2.487802   -0.118254
 ---------------------------------------------------------------------
 Rotational constants (GHZ):           0.1000181           0.0442317           0.0405549
 General basis read from cards:  (5D, 7F)
 There are   800 symmetry adapted cartesian basis functions of A   symmetry.
 There are   749 symmetry adapted basis functions of A   symmetry.
   749 basis functions,  1349 primitive gaussians,   800 cartesian basis functions
   174 alpha electrons      174 beta electrons
       nuclear repulsion energy      6483.0548778755 Hartrees.
 NAtoms=   61 NActive=   61 NUniq=   61 SFac= 1.00D+00 NAtFMM=   60 NAOKFM=T Big=T
 Integral buffers will be    131072 words long.
 Raffenetti 2 integral format.
 Two-electron integral symmetry is turned on.
 Nuclear repulsion after empirical dispersion term =     6482.9934178009 Hartrees.
 ------------------------------------------------------------------------------
 Polarizable Continuum Model (PCM)
 =================================
 Model                : PCM.
 Atomic radii         : UFF (Universal Force Field).
 Polarization charges : Total charges.
 Charge compensation  : None.
 Solution method      : On-the-fly selection.
 Cavity type          : Scaled VdW (van der Waals Surface) (Alpha=1.100).
 Cavity algorithm     : GePol (No added spheres)
                        Default sphere list used, NSphG=   61.
                        Lebedev-Laikov grids with approx.  5.0 points / Ang**2.
                        Smoothing algorithm: York/Karplus (Gamma=1.0000).
                        Polarization charges: spherical gaussians, with
                                              point-specific exponents (IZeta= 3).
                        Self-potential: point-specific (ISelfS= 7).
                        Self-field    : sphere-specific E.n sum rule (ISelfD= 2).
 1st derivatives      : Analytical E(r).r(x)/FMM algorithm (CHGder, D1EAlg=3).
                        Cavity 1st derivative terms included.
 Solvent              : TetraHydroFuran, Eps=   7.425700 Eps(inf)=   1.974025
 ------------------------------------------------------------------------------
 One-electron integrals computed using PRISM.
 PrsmSu:  requested number of processors reduced to:  11 ShMem   1 Linda.
 NBasis=   749 RedAO= T EigKep=  2.26D-04  NBF=   749
 NBsUse=   749 1.00D-06 EigRej= -1.00D+00 NBFU=   749
 ExpMin= 3.93D-02 ExpMax= 2.77D+05 ExpMxC= 1.70D+04 IAcc=3 IRadAn=         5 AccDes= 0.00D+00
 Harris functional with IExCor= 4639 and IRadAn=       5 diagonalized for initial guess.
 HarFok:  IExCor= 4639 AccDes= 0.00D+00 IRadAn=         5 IDoV= 1 UseB2=F ITyADJ=14
 ICtDFT=  3500011 ScaDFX=  1.000000  1.000000  1.000000  1.000000
 FoFCou: FMM=F IPFlag=           0 FMFlag=      100000 FMFlg1=        2001
         NFxFlg=           0 DoJE=T BraDBF=F KetDBF=T FulRan=T
         wScrn=  0.000000 ICntrl=       500 IOpCl=  0 I1Cent=   200000004 NGrid=           0
         NMat0=    1 NMatS0=      1 NMatT0=    0 NMatD0=    1 NMtDS0=    0 NMtDT0=    0
 Petite list used in FoFCou.
 Requested convergence on RMS density matrix=1.00D-08 within 128 cycles.
 Requested convergence on MAX density matrix=1.00D-06.
 Requested convergence on             energy=1.00D-06.
 No special actions if energy rises.

 CoulSu:  requested number of processors reduced to:   8 ShMem   1 Linda.
 Inv3:  Mode=1 IEnd=    72177075.
 Iteration    1 A*A^-1 deviation from unit magnitude is 3.11D-15 for     76.
 Iteration    1 A*A^-1 deviation from orthogonality  is 2.89D-15 for   3759   2153.
 Iteration    1 A^-1*A deviation from unit magnitude is 3.11D-15 for   1280.
 Iteration    1 A^-1*A deviation from orthogonality  is 4.58D-14 for   2093   2062.
 CoulSu:  requested number of processors reduced to:   8 ShMem   1 Linda.
 CoulSu:  requested number of processors reduced to:   8 ShMem   1 Linda.
 Error on total polarization charges =  0.02091
 SCF Done:  E(RwB97XD) =  -6140.25106920     A.U. after   18 cycles
            NFock= 18  Conv=0.74D-08     -V/T= 2.0037

 **********************************************************************

            Population analysis using the SCF density.

 **********************************************************************

 Orbital symmetries:
       Occupied  (A) (A) (A) (A) (A) (A) (A) (A) (A) (A) (A) (A)
                 (A) (A) (A) (A) (A) (A) (A) (A) (A) (A) (A) (A)
                 (A) (A) (A) (A) (A) (A) (A) (A) (A) (A) (A) (A)
                 (A) (A) (A) (A) (A) (A) (A) (A) (A) (A) (A) (A)
                 (A) (A) (A) (A) (A) (A) (A) (A) (A) (A) (A) (A)
                 (A) (A) (A) (A) (A) (A) (A) (A) (A) (A) (A) (A)
                 (A) (A) (A) (A) (A) (A) (A) (A) (A) (A) (A) (A)
                 (A) (A) (A) (A) (A) (A) (A) (A) (A) (A) (A) (A)
                 (A) (A) (A) (A) (A) (A) (A) (A) (A) (A) (A) (A)
                 (A) (A) (A) (A) (A) (A) (A) (A) (A) (A) (A) (A)
                 (A) (A) (A) (A) (A) (A) (A) (A) (A) (A) (A) (A)
                 (A) (A) (A) (A) (A) (A) (A) (A) (A) (A) (A) (A)
                 (A) (A) (A) (A) (A) (A) (A) (A) (A) (A) (A) (A)
                 (A) (A) (A) (A) (A) (A) (A) (A) (A) (A) (A) (A)
                 (A) (A) (A) (A) (A) (A)
       Virtual   (A) (A) (A) (A) (A) (A) (A) (A) (A) (A) (A) (A)
                 (A) (A) (A) (A) (A) (A) (A) (A) (A) (A) (A) (A)
                 (A) (A) (A) (A) (A) (A) (A) (A) (A) (A) (A) (A)
                 (A) (A) (A) (A) (A) (A) (A) (A) (A) (A) (A) (A)
                 (A) (A) (A) (A) (A) (A) (A) (A) (A) (A) (A) (A)
                 (A) (A) (A) (A) (A) (A) (A) (A) (A) (A) (A) (A)
                 (A) (A) (A) (A) (A) (A) (A) (A) (A) (A) (A) (A)
                 (A) (A) (A) (A) (A) (A) (A) (A) (A) (A) (A) (A)
                 (A) (A) (A) (A) (A) (A) (A) (A) (A) (A) (A) (A)
                 (A) (A) (A) (A) (A) (A) (A) (A) (A) (A) (A) (A)
                 (A) (A) (A) (A) (A) (A) (A) (A) (A) (A) (A) (A)
                 (A) (A) (A) (A) (A) (A) (A) (A) (A) (A) (A) (A)
                 (A) (A) (A) (A) (A) (A) (A) (A) (A) (A) (A) (A)
                 (A) (A) (A) (A) (A) (A) (A) (A) (A) (A) (A) (A)
                 (A) (A) (A) (A) (A) (A) (A) (A) (A) (A) (A) (A)
                 (A) (A) (A) (A) (A) (A) (A) (A) (A) (A) (A) (A)
                 (A) (A) (A) (A) (A) (A) (A) (A) (A) (A) (A) (A)
                 (A) (A) (A) (A) (A) (A) (A) (A) (A) (A) (A) (A)
                 (A) (A) (A) (A) (A) (A) (A) (A) (A) (A) (A) (A)
                 (A) (A) (A) (A) (A) (A) (A) (A) (A) (A) (A) (A)
                 (A) (A) (A) (A) (A) (A) (A) (A) (A) (A) (A) (A)
                 (A) (A) (A) (A) (A) (A) (A) (A) (A) (A) (A) (A)
                 (A) (A) (A) (A) (A) (A) (A) (A) (A) (A) (A) (A)
                 (A) (A) (A) (A) (A) (A) (A) (A) (A) (A) (A) (A)
                 (A) (A) (A) (A) (A) (A) (A) (A) (A) (A) (A) (A)
                 (A) (A) (A) (A) (A) (A) (A) (A) (A) (A) (A) (A)
                 (A) (A) (A) (A) (A) (A) (A) (A) (A) (A) (A) (A)
                 (A) (A) (A) (A) (A) (A) (A) (A) (A) (A) (A) (A)
                 (A) (A) (A) (A) (A) (A) (A) (A) (A) (A) (A) (A)
                 (A) (A) (A) (A) (A) (A) (A) (A) (A) (A) (A) (A)
                 (A) (A) (A) (A) (A) (A) (A) (A) (A) (A) (A) (A)
                 (A) (A) (A) (A) (A) (A) (A) (A) (A) (A) (A) (A)
                 (A) (A) (A) (A) (A) (A) (A) (A) (A) (A) (A) (A)
                 (A) (A) (A) (A) (A) (A) (A) (A) (A) (A) (A) (A)
                 (A) (A) (A) (A) (A) (A) (A) (A) (A) (A) (A) (A)
                 (A) (A) (A) (A) (A) (A) (A) (A) (A) (A) (A) (A)
                 (A) (A) (A) (A) (A) (A) (A) (A) (A) (A) (A) (A)
                 (A) (A) (A) (A) (A) (A) (A) (A) (A) (A) (A) (A)
                 (A) (A) (A) (A) (A) (A) (A) (A) (A) (A) (A) (A)
                 (A) (A) (A) (A) (A) (A) (A) (A) (A) (A) (A) (A)
                 (A) (A) (A) (A) (A) (A) (A) (A) (A) (A) (A) (A)
                 (A) (A) (A) (A) (A) (A) (A) (A) (A) (A) (A) (A)
                 (A) (A) (A) (A) (A) (A) (A) (A) (A) (A) (A) (A)
                 (A) (A) (A) (A) (A) (A) (A) (A) (A) (A) (A) (A)
                 (A) (A) (A) (A) (A) (A) (A) (A) (A) (A) (A) (A)
                 (A) (A) (A) (A) (A) (A) (A) (A) (A) (A) (A) (A)
                 (A) (A) (A) (A) (A) (A) (A) (A) (A) (A) (A) (A)
                 (A) (A) (A) (A) (A) (A) (A) (A) (A) (A) (A)
 The electronic state is 1-A.
 Alpha  occ. eigenvalues -- -482.95174-235.70746 -89.04173 -89.03830 -62.53259
 Alpha  occ. eigenvalues --  -56.33810 -56.33809 -56.33802 -27.47758 -23.53573
 Alpha  occ. eigenvalues --  -23.53329 -23.53285 -19.34863 -19.34684 -19.34380
 Alpha  occ. eigenvalues --  -14.50831 -14.49603 -14.49591 -10.42350 -10.42202
 Alpha  occ. eigenvalues --  -10.41969 -10.38935 -10.37260 -10.36833 -10.36277
 Alpha  occ. eigenvalues --  -10.36084 -10.35945 -10.35865 -10.35698 -10.35560
 Alpha  occ. eigenvalues --  -10.34865 -10.34770 -10.34573 -10.34206 -10.34034
 Alpha  occ. eigenvalues --  -10.33816 -10.33699 -10.33683 -10.33639 -10.33623
 Alpha  occ. eigenvalues --  -10.32924 -10.32813 -10.32745 -10.32729 -10.32521
 Alpha  occ. eigenvalues --  -10.32474 -10.32436 -10.32425 -10.32306 -10.32017
 Alpha  occ. eigenvalues --   -8.70050  -8.09246  -8.08980  -6.51732  -6.51725
 Alpha  occ. eigenvalues --   -6.51716  -6.04710  -6.04440  -6.04317  -6.04046
 Alpha  occ. eigenvalues --   -6.03683  -6.03415  -3.26946  -2.62243  -2.62242
 Alpha  occ. eigenvalues --   -2.62238  -2.62229  -2.62228  -2.12534  -2.11977
 Alpha  occ. eigenvalues --   -2.11899  -1.23930  -1.23522  -1.23310  -1.08507
 Alpha  occ. eigenvalues --   -1.07180  -1.04966  -1.01292  -0.98832  -0.98286
 Alpha  occ. eigenvalues --   -0.94732  -0.93356  -0.92244  -0.91218  -0.89632
 Alpha  occ. eigenvalues --   -0.88600  -0.88132  -0.86585  -0.86578  -0.85378
 Alpha  occ. eigenvalues --   -0.82905  -0.78945  -0.76333  -0.75707  -0.75586
 Alpha  occ. eigenvalues --   -0.75270  -0.74903  -0.74009  -0.72453  -0.72239
 Alpha  occ. eigenvalues --   -0.70522  -0.69792  -0.68641  -0.67183  -0.66020
 Alpha  occ. eigenvalues --   -0.65475  -0.65175  -0.64976  -0.64163  -0.62334
 Alpha  occ. eigenvalues --   -0.61772  -0.60725  -0.60091  -0.59740  -0.58834
 Alpha  occ. eigenvalues --   -0.58297  -0.57811  -0.57659  -0.57474  -0.57316
 Alpha  occ. eigenvalues --   -0.57020  -0.56835  -0.56661  -0.55498  -0.55385
 Alpha  occ. eigenvalues --   -0.54818  -0.54724  -0.54500  -0.54190  -0.54032
 Alpha  occ. eigenvalues --   -0.53431  -0.53200  -0.52962  -0.52699  -0.52301
 Alpha  occ. eigenvalues --   -0.52187  -0.52026  -0.52008  -0.51138  -0.50971
 Alpha  occ. eigenvalues --   -0.50563  -0.49707  -0.49214  -0.48395  -0.48328
 Alpha  occ. eigenvalues --   -0.47819  -0.47376  -0.46295  -0.46195  -0.45202
 Alpha  occ. eigenvalues --   -0.44920  -0.44587  -0.44398  -0.43880  -0.41975
 Alpha  occ. eigenvalues --   -0.40963  -0.40492  -0.39954  -0.39595  -0.38569
 Alpha  occ. eigenvalues --   -0.37547  -0.36548  -0.36193  -0.35754  -0.35665
 Alpha  occ. eigenvalues --   -0.34353  -0.32816  -0.32411  -0.32233  -0.31420
 Alpha  occ. eigenvalues --   -0.30331  -0.29725  -0.29597  -0.29007
 Alpha virt. eigenvalues --   -0.00559  -0.00035   0.00601   0.01020   0.01907
 Alpha virt. eigenvalues --    0.02593   0.03116   0.03275   0.03811   0.04051
 Alpha virt. eigenvalues --    0.04233   0.04803   0.05055   0.06666   0.06879
 Alpha virt. eigenvalues --    0.08005   0.08684   0.09169   0.09952   0.10148
 Alpha virt. eigenvalues --    0.10940   0.11037   0.11989   0.13265   0.13462
 Alpha virt. eigenvalues --    0.13695   0.13946   0.14696   0.15366   0.15482
 Alpha virt. eigenvalues --    0.16027   0.16310   0.16663   0.17617   0.18020
 Alpha virt. eigenvalues --    0.18374   0.18620   0.18899   0.19341   0.19805
 Alpha virt. eigenvalues --    0.20128   0.20288   0.21320   0.21513   0.21786
 Alpha virt. eigenvalues --    0.21889   0.22510   0.23037   0.23175   0.23341
 Alpha virt. eigenvalues --    0.23643   0.24771   0.25334   0.25849   0.26698
 Alpha virt. eigenvalues --    0.27471   0.27598   0.28049   0.28434   0.28808
 Alpha virt. eigenvalues --    0.29622   0.30055   0.31196   0.31375   0.32183
 Alpha virt. eigenvalues --    0.32203   0.32853   0.33343   0.33749   0.34212
 Alpha virt. eigenvalues --    0.34368   0.34731   0.34932   0.35454   0.35834
 Alpha virt. eigenvalues --    0.36109   0.36530   0.37067   0.37605   0.37910
 Alpha virt. eigenvalues --    0.38237   0.38598   0.39010   0.39193   0.39639
 Alpha virt. eigenvalues --    0.40116   0.40402   0.40959   0.41915   0.42322
 Alpha virt. eigenvalues --    0.42700   0.42800   0.43775   0.44063   0.45298
 Alpha virt. eigenvalues --    0.45625   0.46074   0.46353   0.46738   0.47338
 Alpha virt. eigenvalues --    0.48161   0.48456   0.48543   0.48996   0.49207
 Alpha virt. eigenvalues --    0.49501   0.49934   0.50735   0.50993   0.51181
 Alpha virt. eigenvalues --    0.51781   0.51989   0.52107   0.53036   0.53225
 Alpha virt. eigenvalues --    0.53575   0.53799   0.53904   0.54443   0.54660
 Alpha virt. eigenvalues --    0.55270   0.55653   0.55734   0.55944   0.56144
 Alpha virt. eigenvalues --    0.56492   0.57043   0.57367   0.57744   0.58459
 Alpha virt. eigenvalues --    0.59047   0.59362   0.59826   0.60248   0.60671
 Alpha virt. eigenvalues --    0.60867   0.60984   0.61655   0.61836   0.62840
 Alpha virt. eigenvalues --    0.63609   0.63669   0.64049   0.64235   0.64818
 Alpha virt. eigenvalues --    0.65392   0.65457   0.65545   0.66318   0.66823
 Alpha virt. eigenvalues --    0.67236   0.67598   0.67884   0.67979   0.68767
 Alpha virt. eigenvalues --    0.68976   0.69348   0.69945   0.69997   0.70452
 Alpha virt. eigenvalues --    0.70703   0.71550   0.71614   0.72015   0.72112
 Alpha virt. eigenvalues --    0.72387   0.72783   0.73069   0.73160   0.73382
 Alpha virt. eigenvalues --    0.73566   0.73810   0.74019   0.74268   0.74762
 Alpha virt. eigenvalues --    0.74919   0.75216   0.75442   0.76295   0.76431
 Alpha virt. eigenvalues --    0.76715   0.76823   0.77248   0.77759   0.78304
 Alpha virt. eigenvalues --    0.78692   0.78840   0.79115   0.79285   0.79637
 Alpha virt. eigenvalues --    0.80213   0.80333   0.80371   0.81060   0.81260
 Alpha virt. eigenvalues --    0.81475   0.82054   0.82573   0.82837   0.83314
 Alpha virt. eigenvalues --    0.83642   0.83679   0.83705   0.83999   0.84527
 Alpha virt. eigenvalues --    0.84781   0.85056   0.85265   0.85764   0.86215
 Alpha virt. eigenvalues --    0.86407   0.87093   0.87356   0.88011   0.88158
 Alpha virt. eigenvalues --    0.88265   0.88534   0.89199   0.89487   0.89842
 Alpha virt. eigenvalues --    0.90175   0.90715   0.91067   0.91652   0.92112
 Alpha virt. eigenvalues --    0.92198   0.92619   0.92869   0.93710   0.94114
 Alpha virt. eigenvalues --    0.94962   0.95292   0.95824   0.96075   0.96599
 Alpha virt. eigenvalues --    0.97214   0.97969   0.98194   0.99084   1.00066
 Alpha virt. eigenvalues --    1.00404   1.00957   1.01364   1.02491   1.03636
 Alpha virt. eigenvalues --    1.04917   1.05787   1.06616   1.07291   1.08111
 Alpha virt. eigenvalues --    1.08268   1.08822   1.09357   1.10010   1.11378
 Alpha virt. eigenvalues --    1.11418   1.11690   1.12375   1.13297   1.13550
 Alpha virt. eigenvalues --    1.14316   1.14720   1.14907   1.15243   1.16183
 Alpha virt. eigenvalues --    1.17580   1.18303   1.18801   1.20376   1.21315
 Alpha virt. eigenvalues --    1.21762   1.22465   1.23987   1.24214   1.24803
 Alpha virt. eigenvalues --    1.26358   1.26846   1.27077   1.27675   1.28053
 Alpha virt. eigenvalues --    1.28461   1.29154   1.29476   1.29816   1.30269
 Alpha virt. eigenvalues --    1.30394   1.30561   1.31158   1.31759   1.31875
 Alpha virt. eigenvalues --    1.32390   1.33111   1.33431   1.34056   1.34066
 Alpha virt. eigenvalues --    1.34952   1.35170   1.35775   1.35919   1.36110
 Alpha virt. eigenvalues --    1.36447   1.36779   1.37415   1.38188   1.39075
 Alpha virt. eigenvalues --    1.39372   1.40318   1.40553   1.42076   1.43542
 Alpha virt. eigenvalues --    1.44639   1.45905   1.46400   1.48329   1.49547
 Alpha virt. eigenvalues --    1.49735   1.50310   1.51803   1.54200   1.55334
 Alpha virt. eigenvalues --    1.57015   1.57701   1.58728   1.59109   1.61286
 Alpha virt. eigenvalues --    1.61961   1.63350   1.65150   1.65764   1.66150
 Alpha virt. eigenvalues --    1.66682   1.67555   1.68392   1.68657   1.69566
 Alpha virt. eigenvalues --    1.69745   1.71429   1.71590   1.72684   1.73065
 Alpha virt. eigenvalues --    1.73153   1.73476   1.73864   1.74882   1.75117
 Alpha virt. eigenvalues --    1.75830   1.76168   1.76637   1.76831   1.77210
 Alpha virt. eigenvalues --    1.77413   1.78115   1.78492   1.78755   1.79497
 Alpha virt. eigenvalues --    1.79721   1.79991   1.80292   1.80729   1.80881
 Alpha virt. eigenvalues --    1.81760   1.81931   1.82300   1.82480   1.83148
 Alpha virt. eigenvalues --    1.83371   1.83928   1.83978   1.84438   1.84815
 Alpha virt. eigenvalues --    1.85475   1.86336   1.86847   1.87892   1.88296
 Alpha virt. eigenvalues --    1.88406   1.89122   1.89196   1.90040   1.90315
 Alpha virt. eigenvalues --    1.90776   1.91658   1.91705   1.91789   1.92645
 Alpha virt. eigenvalues --    1.93442   1.94075   1.94861   1.94953   1.96262
 Alpha virt. eigenvalues --    1.97957   1.98314   1.99469   2.00048   2.00395
 Alpha virt. eigenvalues --    2.00914   2.01505   2.01588   2.01918   2.02144
 Alpha virt. eigenvalues --    2.02777   2.02904   2.03703   2.04197   2.04259
 Alpha virt. eigenvalues --    2.05045   2.05676   2.05948   2.06861   2.07206
 Alpha virt. eigenvalues --    2.07574   2.08598   2.08786   2.09717   2.10407
 Alpha virt. eigenvalues --    2.11020   2.11401   2.12316   2.12564   2.15051
 Alpha virt. eigenvalues --    2.16273   2.16729   2.17080   2.17755   2.18572
 Alpha virt. eigenvalues --    2.18664   2.19389   2.20156   2.20572   2.20673
 Alpha virt. eigenvalues --    2.21597   2.22749   2.23468   2.23857   2.25010
 Alpha virt. eigenvalues --    2.26183   2.27084   2.29735   2.29903   2.30003
 Alpha virt. eigenvalues --    2.30957   2.31208   2.31325   2.31994   2.32875
 Alpha virt. eigenvalues --    2.33229   2.34567   2.34916   2.34985   2.35487
 Alpha virt. eigenvalues --    2.37009   2.37284   2.37693   2.38030   2.38352
 Alpha virt. eigenvalues --    2.38729   2.39077   2.39610   2.39810   2.40913
 Alpha virt. eigenvalues --    2.41116   2.41347   2.42230   2.42775   2.45608
 Alpha virt. eigenvalues --    2.46721   2.47916   2.49391   2.49569   2.50422
 Alpha virt. eigenvalues --    2.52493   2.53391   2.55785   2.56690   2.58170
 Alpha virt. eigenvalues --    2.59104   2.59664   2.60680   2.62433   2.65586
 Alpha virt. eigenvalues --    2.67239   2.67593   2.67806   2.67975   2.68426
 Alpha virt. eigenvalues --    2.69106   2.69249   2.69338   2.69623   2.69944
 Alpha virt. eigenvalues --    2.70009   2.70207   2.70601   2.70713   2.71438
 Alpha virt. eigenvalues --    2.72688   2.75647   2.76123   2.77178   2.78829
 Alpha virt. eigenvalues --    2.79651   2.79953   2.80002   2.81653   2.82841
 Alpha virt. eigenvalues --    2.83268   2.83880   2.84481   2.85529   2.86039
 Alpha virt. eigenvalues --    2.87021   2.87658   2.88995   2.90322   2.91239
 Alpha virt. eigenvalues --    2.92326   2.93032   2.94931   2.98449   2.99503
 Alpha virt. eigenvalues --    3.00285   3.01847   3.03344   3.03995   3.04546
 Alpha virt. eigenvalues --    3.05128   3.06928   3.07574   3.08737   3.09386
 Alpha virt. eigenvalues --    3.10340   3.14765   3.16228   3.17167   3.19512
 Alpha virt. eigenvalues --    3.20913   3.21594   3.21623   3.22784   3.23519
 Alpha virt. eigenvalues --    3.24071   3.24614   3.29582   3.29954   3.32872
 Alpha virt. eigenvalues --    3.36853   3.38561   3.40127   3.46509   3.49332
 Alpha virt. eigenvalues --    3.50901   3.52674   3.53858   3.57324   3.58494
 Alpha virt. eigenvalues --    3.60725   3.60889   3.62018   3.62722   3.63524
 Alpha virt. eigenvalues --    3.65438   3.69242   3.69682   3.70703   3.76321
 Alpha virt. eigenvalues --    3.76437   3.78324   3.79506   3.81575   3.86725
 Alpha virt. eigenvalues --    3.90711   3.92159   3.97301   4.04588   4.07440
          Condensed to atoms (all electrons):
 Mulliken charges:
               1
     1  Mn  -0.712956
     2  C    0.347544
     3  O   -0.050306
     4  C    0.367428
     5  O   -0.037535
     6  C    0.313495
     7  N   -0.211881
     8  C   -0.042736
     9  C    0.063090
    10  C    0.141982
    11  H    0.075070
    12  H    0.051077
    13  N    0.127508
    14  C   -0.018671
    15  C   -0.150563
    16  C    0.034922
    17  C   -0.025528
    18  C    0.045741
    19  H    0.052331
    20  H    0.061880
    21  N   -0.213618
    22  C   -0.040212
    23  C    0.064968
    24  H    0.064724
    25  C    0.111990
    26  H    0.091536
    27  C    0.105294
    28  H    0.073146
    29  H    0.054184
    30  O   -0.057219
    31  S    0.094708
    32  S    0.088700
    33  C   -0.099356
    34  C   -0.004654
    35  C   -0.017019
    36  C   -0.018438
    37  C   -0.006698
    38  C   -0.084680
    39  C   -0.048149
    40  H    0.041105
    41  H    0.051697
    42  H    0.041581
    43  C   -0.048913
    44  C   -0.084362
    45  C   -0.004238
    46  C   -0.018422
    47  C   -0.018764
    48  C   -0.001862
    49  H    0.042887
    50  H    0.052151
    51  H    0.039935
    52  C   -0.098311
    53  H    0.059066
    54  C    0.159390
    55  H    0.039703
    56  H    0.035610
    57  C   -0.002090
    58  C   -0.023930
    59  H    0.055530
    60  H    0.056745
    61  Br  -0.965607
 Sum of Mulliken charges =  -0.00000
 Mulliken charges with hydrogens summed into heavy atoms:
               1
     1  Mn  -0.712956
     2  C    0.347544
     3  O   -0.050306
     4  C    0.367428
     5  O   -0.037535
     6  C    0.313495
     7  N   -0.211881
     8  C    0.032334
     9  C    0.114167
    10  C    0.177592
    13  N    0.127508
    14  C   -0.018671
    15  C   -0.150563
    16  C    0.087253
    17  C    0.028656
    18  C    0.107621
    21  N   -0.213618
    22  C    0.024512
    23  C    0.124033
    25  C    0.203526
    27  C    0.178439
    30  O   -0.057219
    31  S    0.094708
    32  S    0.088700
    33  C   -0.099356
    34  C   -0.004654
    35  C    0.024086
    36  C    0.033260
    37  C    0.034883
    38  C   -0.084680
    39  C   -0.048149
    43  C   -0.048913
    44  C   -0.084362
    45  C    0.038649
    46  C    0.033729
    47  C    0.021172
    48  C   -0.001862
    52  C   -0.098311
    54  C    0.199093
    57  C    0.054655
    58  C    0.031600
    61  Br  -0.965607
 Electronic spatial extent (au):  <R**2>=          27096.1225
 Charge=              0.0000 electrons
 Dipole moment (field-independent basis, Debye):
    X=             14.4761    Y=            -13.9060    Z=             -3.8298  Tot=             20.4353
 Quadrupole moment (field-independent basis, Debye-Ang):
   XX=           -290.9757   YY=           -254.1091   ZZ=           -269.5705
   XY=             60.2415   XZ=             25.1391   YZ=              6.5470
 Traceless Quadrupole moment (field-independent basis, Debye-Ang):
   XX=            -19.4239   YY=             17.4427   ZZ=              1.9812
   XY=             60.2415   XZ=             25.1391   YZ=              6.5470
 Octapole moment (field-independent basis, Debye-Ang**2):
  XXX=            151.2873  YYY=            -41.6279  ZZZ=            -22.1660  XYY=            197.5462
  XXY=           -330.2199  XXZ=            -45.7063  XZZ=           -152.0509  YZZ=             -9.5520
  YYZ=            -13.5787  XYZ=            -39.5721
 Hexadecapole moment (field-independent basis, Debye-Ang**3):
 XXXX=         -21788.6039 YYYY=          -7198.0715 ZZZZ=          -4803.0799 XXXY=           1354.7988
 XXXZ=            774.5064 YYYX=            168.1158 YYYZ=             13.2547 ZZZX=            325.1345
 ZZZY=            101.3523 XXYY=          -5126.4112 XXZZ=          -4471.9880 YYZZ=          -2160.6556
 XXYZ=            182.7298 YYXZ=             87.1698 ZZXY=             50.2390
 N-N= 6.482993417801D+03 E-N=-2.750719602236D+04  KE= 6.117319475923D+03
 PrsmSu:  requested number of processors reduced to:  11 ShMem   1 Linda.
 D1PCM: PCM CHGder 1st derivatives, ID1Alg=3 FixD1E=F DoIter=F DoCFld=F I1PDM=0.
 CoulSu:  requested number of processors reduced to:   9 ShMem   1 Linda.
 CoulSu:  requested number of processors reduced to:  10 ShMem   1 Linda.
 Calling FoFJK, ICntrl=      2127 FMM=T ISym2X=0 I1Cent= 0 IOpClX= 0 NMat=1 NMatS=1 NMatT=0.
 ***** Axes restored to original set *****
 -------------------------------------------------------------------
 Center     Atomic                   Forces (Hartrees/Bohr)
 Number     Number              X              Y              Z
 -------------------------------------------------------------------
      1       25          -0.004529087    0.002711965    0.004047834
      2        6          -0.004186412   -0.006074169   -0.000318019
      3        8           0.003100804    0.003728413    0.000613678
      4        6          -0.002786799   -0.001855616   -0.004307851
      5        8           0.001632962    0.000323254    0.002565626
      6        6           0.001543636   -0.002702123   -0.001660822
      7        7           0.003702666   -0.003291117    0.002746621
      8        6          -0.002229224   -0.003436286   -0.000154917
      9        6          -0.000662646    0.001998547   -0.000581551
     10        6          -0.000014686   -0.002214759   -0.000241481
     11        1           0.001559286    0.000523579    0.000132506
     12        1           0.000497987   -0.000195669    0.000223556
     13        7           0.003727281   -0.001798867    0.000631344
     14        6          -0.004467800    0.002637079    0.000117211
     15        6           0.001426464   -0.002872597   -0.000107782
     16        6           0.000233427   -0.000529670    0.000010579
     17        6          -0.000433290    0.000448041    0.000236314
     18        6           0.001913991   -0.001830956   -0.000488995
     19        1           0.000252990    0.000943748   -0.000213352
     20        1          -0.004040845    0.002325770    0.001830041
     21        7           0.000560335    0.001034066   -0.003787168
     22        6           0.000137682    0.000771124    0.000711351
     23        6          -0.000207859   -0.000379406    0.000347444
     24        1          -0.000110040   -0.000566856   -0.000544141
     25        6           0.003830480   -0.004183267    0.007168145
     26        1          -0.002232591   -0.003371363    0.000271687
     27        6          -0.000135707    0.000254330   -0.000169340
     28        1          -0.000404834   -0.000989276   -0.000238233
     29        1           0.000732159    0.000075172   -0.000513390
     30        8          -0.002153488    0.001489507    0.001353448
     31       16           0.000049128    0.001216743    0.000389597
     32       16          -0.000439058   -0.000668000    0.000325307
     33        6           0.001587936   -0.002261214    0.000955846
     34        6           0.000504140    0.001488617   -0.000117750
     35        6          -0.000042748    0.000103372   -0.000379268
     36        6          -0.000277022   -0.000350965   -0.000709781
     37        6          -0.000135184   -0.000757406   -0.000063842
     38        6          -0.000173852    0.000187399   -0.000340567
     39        6          -0.000131220   -0.000762778   -0.000918757
     40        1          -0.000053864   -0.000328023    0.000585068
     41        1           0.000250616    0.000370698    0.000546391
     42        1           0.000139751    0.000708670    0.000010328
     43        6           0.000194331   -0.000037026   -0.000021171
     44        6           0.000280424   -0.000255581    0.000147705
     45        6           0.000082157   -0.000557776    0.000206370
     46        6           0.000697255   -0.000457585    0.000638354
     47        6           0.000512705    0.000566503    0.000212786
     48        6           0.000468344    0.000711282    0.000207580
     49        1           0.000142091    0.000730731   -0.000113177
     50        1          -0.000452209    0.000447451   -0.000395999
     51        1          -0.000428154   -0.000385530   -0.000299854
     52        6          -0.000537524   -0.001545546    0.000024350
     53        1           0.000266946    0.000180147   -0.000665259
     54        6          -0.000220143    0.000129983   -0.000431526
     55        1          -0.000112724    0.000803651    0.000025155
     56        1          -0.000161324    0.000278973   -0.000087736
     57        6          -0.000749373   -0.000244025    0.000358091
     58        6           0.002840824    0.001325339   -0.001190760
     59        1          -0.000553157   -0.000761577    0.000008312
     60        1           0.000501635   -0.000659891   -0.000542502
     61       35          -0.000307570    0.017810765   -0.008043637
 -------------------------------------------------------------------
 Cartesian Forces:  Max     0.017810765 RMS     0.002187974

 GradGradGradGradGradGradGradGradGradGradGradGradGradGradGradGradGradGrad
 Berny optimization.
 FormGI is forming the generalized inverse of G from B-inverse, IUseBI=4.
 Internal  Forces:  Max     0.019479481 RMS     0.001740067
 Search for a local minimum.
 Step number   1 out of a maximum of  360
 All quantities printed in internal units (Hartrees-Bohrs-Radians)
 Mixed Optimization -- RFO/linear search
 Second derivative matrix not updated -- first step.
 ITU=  0
     Eigenvalues ---    0.00230   0.00230   0.00528   0.00706   0.00717
     Eigenvalues ---    0.01299   0.01431   0.01524   0.01599   0.01621
     Eigenvalues ---    0.01675   0.01680   0.01811   0.01831   0.01873
     Eigenvalues ---    0.01889   0.01901   0.01944   0.02002   0.02017
     Eigenvalues ---    0.02066   0.02120   0.02132   0.02134   0.02139
     Eigenvalues ---    0.02143   0.02146   0.02157   0.02161   0.02164
     Eigenvalues ---    0.02167   0.02174   0.02176   0.02177   0.02178
     Eigenvalues ---    0.02179   0.02181   0.02191   0.02195   0.02198
     Eigenvalues ---    0.02227   0.02228   0.02268   0.02299   0.02348
     Eigenvalues ---    0.02354   0.02379   0.02888   0.03504   0.03865
     Eigenvalues ---    0.04057   0.04263   0.04488   0.04933   0.05053
     Eigenvalues ---    0.05053   0.05118   0.05118   0.05121   0.05121
     Eigenvalues ---    0.06381   0.08453   0.08525   0.08790   0.09015
     Eigenvalues ---    0.09193   0.09239   0.11398   0.13200   0.13425
     Eigenvalues ---    0.15995   0.15996   0.15998   0.15998   0.15998
     Eigenvalues ---    0.15999   0.15999   0.15999   0.15999   0.16000
     Eigenvalues ---    0.16000   0.16000   0.16000   0.16000   0.16000
     Eigenvalues ---    0.16000   0.16000   0.16000   0.16000   0.16414
     Eigenvalues ---    0.16788   0.17924   0.21821   0.21983   0.22000
     Eigenvalues ---    0.22000   0.22017   0.22049   0.22129   0.22132
     Eigenvalues ---    0.22174   0.22367   0.22896   0.22945   0.23412
     Eigenvalues ---    0.23460   0.23483   0.23484   0.23638   0.23761
     Eigenvalues ---    0.23826   0.24116   0.24907   0.24928   0.24994
     Eigenvalues ---    0.24998   0.25000   0.26792   0.26876   0.27593
     Eigenvalues ---    0.28071   0.32884   0.33347   0.34062   0.34451
     Eigenvalues ---    0.34460   0.34466   0.34478   0.34480   0.34495
     Eigenvalues ---    0.34496   0.34521   0.34527   0.34534   0.34541
     Eigenvalues ---    0.34542   0.34661   0.34667   0.34670   0.34671
     Eigenvalues ---    0.34783   0.34851   0.38377   0.39770   0.40259
     Eigenvalues ---    0.40764   0.41553   0.41597   0.41711   0.41910
     Eigenvalues ---    0.42246   0.43911   0.43929   0.44300   0.44962
     Eigenvalues ---    0.45518   0.45770   0.45890   0.45966   0.45991
     Eigenvalues ---    0.46146   0.46393   0.46484   0.46498   0.46821
     Eigenvalues ---    0.46855   0.47135   0.47321   0.47353   0.54327
     Eigenvalues ---    0.54455   0.55757   0.56737   1.32812   1.37497
     Eigenvalues ---    1.41082   1.41255
 RFO step:  Lambda=-1.13827016D-02 EMin= 2.30000000D-03
 Linear search not attempted -- first point.
 Maximum step size (   0.300) exceeded in Quadratic search.
    -- Step size scaled by   0.729
 Iteration  1 RMS(Cart)=  0.06343075 RMS(Int)=  0.00336947
 Iteration  2 RMS(Cart)=  0.00352184 RMS(Int)=  0.00002833
 Iteration  3 RMS(Cart)=  0.00000402 RMS(Int)=  0.00002823
 Iteration  4 RMS(Cart)=  0.00000000 RMS(Int)=  0.00002823
 Variable       Old X    -DE/DX   Delta X   Delta X   Delta X     New X
                                 (Linear)    (Quad)   (Total)
    R1        3.46313  -0.00160   0.00000  -0.00505  -0.00505   3.45808
    R2        3.46210   0.00077   0.00000   0.00243   0.00243   3.46453
    R3        3.43491   0.00084   0.00000   0.00254   0.00254   3.43744
    R4        4.14415  -0.00611   0.00000  -0.04482  -0.04482   4.09932
    R5        3.81878  -0.00138   0.00000  -0.00689  -0.00689   3.81189
    R6        4.15230  -0.00414   0.00000  -0.03126  -0.03127   4.12103
    R7        2.15573   0.00394   0.00000   0.00202   0.00202   2.15775
    R8        2.15617  -0.00198   0.00000  -0.00102  -0.00102   2.15515
    R9        2.16540  -0.00268   0.00000  -0.00141  -0.00141   2.16399
   R10        2.52339   0.00179   0.00000   0.00210   0.00208   2.52547
   R11        2.53986   0.00540   0.00000   0.00719   0.00720   2.54707
   R12        2.63083  -0.00069   0.00000  -0.00075  -0.00074   2.63009
   R13        2.06213  -0.00061   0.00000  -0.00124  -0.00124   2.06088
   R14        2.62097   0.00129   0.00000   0.00257   0.00259   2.62356
   R15        2.06550  -0.00047   0.00000  -0.00096  -0.00096   2.06454
   R16        2.63468   0.00083   0.00000   0.00088   0.00087   2.63556
   R17        2.63795  -0.00114   0.00000  -0.00268  -0.00270   2.63525
   R18        2.06029  -0.00032   0.00000  -0.00066  -0.00066   2.05963
   R19        2.17796   0.00164   0.00000   0.00090   0.00090   2.17885
   R20        2.71202  -0.00266   0.00000  -0.00468  -0.00468   2.70734
   R21        2.65254  -0.00071   0.00000  -0.00110  -0.00110   2.65144
   R22        2.64933   0.00061   0.00000   0.00094   0.00094   2.65026
   R23        2.62733  -0.00003   0.00000  -0.00001  -0.00001   2.62732
   R24        2.06450  -0.00099   0.00000  -0.00202  -0.00202   2.06248
   R25        2.06439  -0.00089   0.00000  -0.00182  -0.00182   2.06257
   R26        2.63959  -0.00052   0.00000  -0.00077  -0.00077   2.63882
   R27        2.07225  -0.00418   0.00000  -0.00867  -0.00867   2.06358
   R28        2.63040  -0.00158   0.00000  -0.00243  -0.00243   2.62798
   R29        2.53972  -0.00067   0.00000  -0.00090  -0.00091   2.53882
   R30        2.52349  -0.00050   0.00000  -0.00115  -0.00115   2.52233
   R31        2.63080   0.00005   0.00000   0.00050   0.00051   2.63131
   R32        2.06219  -0.00079   0.00000  -0.00160  -0.00160   2.06059
   R33        2.62113  -0.00001   0.00000   0.00032   0.00033   2.62145
   R34        2.63501  -0.00023   0.00000  -0.00027  -0.00027   2.63474
   R35        2.06561  -0.00074   0.00000  -0.00151  -0.00151   2.06410
   R36        2.06214   0.01335   0.00000   0.02718   0.02718   2.08932
   R37        4.15179   0.01948   0.00000   0.26301   0.26301   4.41479
   R38        2.06229  -0.00101   0.00000  -0.00206  -0.00206   2.06023
   R39        3.36303   0.00039   0.00000   0.00075   0.00077   3.36380
   R40        3.36282  -0.00005   0.00000   0.00001   0.00001   3.36283
   R41        3.35214   0.00073   0.00000   0.00247   0.00247   3.35461
   R42        3.35186   0.00054   0.00000   0.00181   0.00181   3.35368
   R43        2.81702  -0.00086   0.00000  -0.00151  -0.00152   2.81550
   R44        2.64356   0.00014   0.00000   0.00017   0.00017   2.64373
   R45        2.66100  -0.00044   0.00000  -0.00048  -0.00048   2.66052
   R46        2.63136   0.00003   0.00000   0.00017   0.00017   2.63153
   R47        2.06531  -0.00067   0.00000  -0.00137  -0.00137   2.06394
   R48        2.62971   0.00002   0.00000   0.00021   0.00022   2.62993
   R49        2.06425  -0.00070   0.00000  -0.00143  -0.00143   2.06282
   R50        2.63935   0.00004   0.00000   0.00011   0.00012   2.63947
   R51        2.06502  -0.00072   0.00000  -0.00147  -0.00147   2.06355
   R52        2.64883   0.00035   0.00000   0.00054   0.00053   2.64936
   R53        2.64923   0.00027   0.00000   0.00006   0.00007   2.64930
   R54        2.66139  -0.00086   0.00000  -0.00149  -0.00148   2.65991
   R55        2.63916   0.00028   0.00000   0.00058   0.00058   2.63974
   R56        2.62918   0.00016   0.00000   0.00063   0.00063   2.62981
   R57        2.06501  -0.00075   0.00000  -0.00153  -0.00153   2.06347
   R58        2.63103  -0.00008   0.00000   0.00013   0.00013   2.63115
   R59        2.06427  -0.00074   0.00000  -0.00152  -0.00152   2.06275
   R60        2.64446  -0.00005   0.00000  -0.00022  -0.00022   2.64424
   R61        2.06528  -0.00063   0.00000  -0.00128  -0.00128   2.06400
   R62        2.81796  -0.00141   0.00000  -0.00326  -0.00325   2.81471
   R63        2.63901   0.00033   0.00000  -0.00015  -0.00016   2.63885
   R64        2.05917  -0.00054   0.00000  -0.00109  -0.00109   2.05808
   R65        2.63717  -0.00007   0.00000  -0.00011  -0.00011   2.63705
[...]
                 (A) (A) (A) (A) (A) (A) (A) (A) (A) (A) (A) (A)
                 (A) (A) (A) (A) (A) (A) (A) (A) (A) (A) (A) (A)
                 (A) (A) (A) (A) (A) (A) (A) (A) (A) (A) (A) (A)
                 (A) (A) (A) (A) (A) (A) (A) (A) (A) (A) (A) (A)
                 (A) (A) (A) (A) (A) (A) (A) (A) (A) (A) (A) (A)
                 (A) (A) (A) (A) (A) (A) (A) (A) (A) (A) (A) (A)
                 (A) (A) (A) (A) (A) (A) (A) (A) (A) (A) (A)
 The electronic state is 1-A.
 Alpha  occ. eigenvalues -- -482.95263-235.70788 -89.04291 -89.03953 -62.53323
 Alpha  occ. eigenvalues --  -56.33876 -56.33874 -56.33871 -27.47853 -23.53651
 Alpha  occ. eigenvalues --  -23.53407 -23.53394 -19.34989 -19.34860 -19.34685
 Alpha  occ. eigenvalues --  -14.51047 -14.50389 -14.49886 -10.42416 -10.42394
 Alpha  occ. eigenvalues --  -10.42216 -10.39205 -10.37358 -10.36891 -10.36788
 Alpha  occ. eigenvalues --  -10.36141 -10.36028 -10.35905 -10.35798 -10.35711
 Alpha  occ. eigenvalues --  -10.35575 -10.34930 -10.34843 -10.34602 -10.34408
 Alpha  occ. eigenvalues --  -10.34343 -10.34189 -10.33705 -10.33658 -10.33519
 Alpha  occ. eigenvalues --  -10.32988 -10.32856 -10.32807 -10.32747 -10.32718
 Alpha  occ. eigenvalues --  -10.32587 -10.32579 -10.32425 -10.32395 -10.32308
 Alpha  occ. eigenvalues --   -8.70087  -8.09363  -8.09095  -6.51768  -6.51760
 Alpha  occ. eigenvalues --   -6.51751  -6.04827  -6.04556  -6.04434  -6.04161
 Alpha  occ. eigenvalues --   -6.03800  -6.03530  -3.27054  -2.62276  -2.62275
 Alpha  occ. eigenvalues --   -2.62268  -2.62261  -2.62260  -2.12615  -2.12093
 Alpha  occ. eigenvalues --   -2.12040  -1.23923  -1.23811  -1.23656  -1.08721
 Alpha  occ. eigenvalues --   -1.07879  -1.05219  -1.01395  -0.98978  -0.98287
 Alpha  occ. eigenvalues --   -0.94920  -0.93681  -0.92356  -0.91443  -0.89944
 Alpha  occ. eigenvalues --   -0.88656  -0.88494  -0.86683  -0.86572  -0.85627
 Alpha  occ. eigenvalues --   -0.83084  -0.79062  -0.76477  -0.75891  -0.75721
 Alpha  occ. eigenvalues --   -0.75368  -0.74992  -0.74390  -0.72637  -0.72192
 Alpha  occ. eigenvalues --   -0.70732  -0.70080  -0.68832  -0.67323  -0.66109
 Alpha  occ. eigenvalues --   -0.65609  -0.65442  -0.65149  -0.64585  -0.62642
 Alpha  occ. eigenvalues --   -0.61922  -0.61120  -0.60324  -0.60115  -0.58947
 Alpha  occ. eigenvalues --   -0.58475  -0.58014  -0.57822  -0.57597  -0.57427
 Alpha  occ. eigenvalues --   -0.57183  -0.57142  -0.56865  -0.55847  -0.55572
 Alpha  occ. eigenvalues --   -0.55038  -0.54966  -0.54694  -0.54323  -0.54143
 Alpha  occ. eigenvalues --   -0.53720  -0.53329  -0.53159  -0.52818  -0.52568
 Alpha  occ. eigenvalues --   -0.52381  -0.52277  -0.52199  -0.51592  -0.51179
 Alpha  occ. eigenvalues --   -0.50728  -0.49845  -0.49345  -0.48557  -0.48495
 Alpha  occ. eigenvalues --   -0.47983  -0.47572  -0.46381  -0.46155  -0.45423
 Alpha  occ. eigenvalues --   -0.45019  -0.44667  -0.44533  -0.44073  -0.42368
 Alpha  occ. eigenvalues --   -0.41537  -0.40702  -0.40133  -0.40013  -0.38755
 Alpha  occ. eigenvalues --   -0.37569  -0.36996  -0.36251  -0.35762  -0.35709
 Alpha  occ. eigenvalues --   -0.34612  -0.32922  -0.32444  -0.32335  -0.31571
 Alpha  occ. eigenvalues --   -0.30419  -0.29603  -0.29511  -0.29419
 Alpha virt. eigenvalues --   -0.00660  -0.00140   0.00373   0.00581   0.01675
 Alpha virt. eigenvalues --    0.02451   0.03041   0.03407   0.03871   0.03928
 Alpha virt. eigenvalues --    0.04043   0.04652   0.04783   0.06519   0.06840
 Alpha virt. eigenvalues --    0.07874   0.08765   0.09030   0.09726   0.09939
 Alpha virt. eigenvalues --    0.10285   0.10887   0.11913   0.13120   0.13436
 Alpha virt. eigenvalues --    0.13603   0.13773   0.14723   0.15310   0.15454
 Alpha virt. eigenvalues --    0.16003   0.16194   0.16393   0.17576   0.17853
 Alpha virt. eigenvalues --    0.18237   0.18539   0.18786   0.19066   0.19698
 Alpha virt. eigenvalues --    0.20035   0.20204   0.21199   0.21376   0.21574
 Alpha virt. eigenvalues --    0.21834   0.22223   0.22707   0.23130   0.23261
 Alpha virt. eigenvalues --    0.23401   0.23960   0.25000   0.25221   0.25820
 Alpha virt. eigenvalues --    0.26815   0.27072   0.27816   0.28202   0.28452
 Alpha virt. eigenvalues --    0.28969   0.29172   0.31037   0.31254   0.31920
 Alpha virt. eigenvalues --    0.32035   0.32317   0.33040   0.33235   0.33648
 Alpha virt. eigenvalues --    0.34258   0.34506   0.34935   0.35402   0.35572
 Alpha virt. eigenvalues --    0.35894   0.36392   0.37123   0.37286   0.37582
 Alpha virt. eigenvalues --    0.37941   0.38621   0.38807   0.39194   0.39281
 Alpha virt. eigenvalues --    0.39848   0.40157   0.40427   0.41675   0.42138
 Alpha virt. eigenvalues --    0.42349   0.42539   0.43399   0.43645   0.45191
 Alpha virt. eigenvalues --    0.45567   0.45754   0.46334   0.46774   0.47202
 Alpha virt. eigenvalues --    0.48030   0.48499   0.48678   0.48711   0.49093
 Alpha virt. eigenvalues --    0.49222   0.49609   0.50471   0.50831   0.51197
 Alpha virt. eigenvalues --    0.51544   0.51965   0.51986   0.52876   0.53037
 Alpha virt. eigenvalues --    0.53433   0.53622   0.53781   0.54369   0.54615
 Alpha virt. eigenvalues --    0.55094   0.55589   0.55763   0.55915   0.56153
 Alpha virt. eigenvalues --    0.56331   0.56737   0.57073   0.57553   0.58160
 Alpha virt. eigenvalues --    0.58838   0.59163   0.59364   0.59891   0.60545
 Alpha virt. eigenvalues --    0.60667   0.60810   0.61293   0.61857   0.62486
 Alpha virt. eigenvalues --    0.63153   0.63413   0.63890   0.63920   0.64275
 Alpha virt. eigenvalues --    0.65108   0.65326   0.65502   0.66266   0.66443
 Alpha virt. eigenvalues --    0.66954   0.67178   0.67430   0.67852   0.68691
 Alpha virt. eigenvalues --    0.68842   0.69301   0.69697   0.70134   0.70278
 Alpha virt. eigenvalues --    0.70666   0.71413   0.71664   0.71896   0.72181
 Alpha virt. eigenvalues --    0.72365   0.72659   0.72845   0.73135   0.73351
 Alpha virt. eigenvalues --    0.73380   0.73557   0.73995   0.74254   0.74531
 Alpha virt. eigenvalues --    0.74893   0.75252   0.75452   0.76022   0.76533
 Alpha virt. eigenvalues --    0.76700   0.76777   0.77125   0.77407   0.77817
 Alpha virt. eigenvalues --    0.78215   0.78731   0.79039   0.79139   0.79776
 Alpha virt. eigenvalues --    0.79898   0.80186   0.80559   0.80909   0.81107
 Alpha virt. eigenvalues --    0.81401   0.81829   0.82557   0.82784   0.83273
 Alpha virt. eigenvalues --    0.83364   0.83455   0.83542   0.83971   0.84321
 Alpha virt. eigenvalues --    0.84751   0.85119   0.85323   0.85535   0.85861
 Alpha virt. eigenvalues --    0.86361   0.86676   0.86945   0.87533   0.87781
 Alpha virt. eigenvalues --    0.88115   0.88340   0.88663   0.88954   0.89533
 Alpha virt. eigenvalues --    0.89879   0.90329   0.90861   0.91117   0.91385
 Alpha virt. eigenvalues --    0.91580   0.92250   0.92871   0.93821   0.94162
 Alpha virt. eigenvalues --    0.94530   0.94885   0.95691   0.95750   0.96132
 Alpha virt. eigenvalues --    0.97016   0.97546   0.98173   0.98522   0.98612
 Alpha virt. eigenvalues --    0.99649   1.00439   1.01118   1.01457   1.03560
 Alpha virt. eigenvalues --    1.03842   1.04990   1.05473   1.06310   1.07735
 Alpha virt. eigenvalues --    1.07824   1.08347   1.08639   1.09570   1.10554
 Alpha virt. eigenvalues --    1.11580   1.11750   1.12096   1.13158   1.13549
 Alpha virt. eigenvalues --    1.14348   1.14560   1.14760   1.15089   1.15789
 Alpha virt. eigenvalues --    1.17270   1.18202   1.19369   1.20054   1.21321
 Alpha virt. eigenvalues --    1.21836   1.22473   1.24373   1.24560   1.24788
 Alpha virt. eigenvalues --    1.26325   1.26794   1.27326   1.27650   1.28153
 Alpha virt. eigenvalues --    1.28638   1.29166   1.29372   1.29590   1.29823
 Alpha virt. eigenvalues --    1.30244   1.30755   1.30952   1.31266   1.31763
 Alpha virt. eigenvalues --    1.32339   1.33092   1.33678   1.34024   1.34508
 Alpha virt. eigenvalues --    1.34837   1.35081   1.35540   1.35994   1.36041
 Alpha virt. eigenvalues --    1.36514   1.36778   1.37121   1.37395   1.37889
 Alpha virt. eigenvalues --    1.38898   1.39474   1.40291   1.41052   1.43151
 Alpha virt. eigenvalues --    1.43898   1.45454   1.46160   1.48335   1.49475
 Alpha virt. eigenvalues --    1.49658   1.50119   1.52475   1.53659   1.54802
 Alpha virt. eigenvalues --    1.56739   1.57568   1.58624   1.59253   1.60757
 Alpha virt. eigenvalues --    1.61746   1.62721   1.64627   1.65578   1.65853
 Alpha virt. eigenvalues --    1.66043   1.67068   1.68278   1.68536   1.68921
 Alpha virt. eigenvalues --    1.69035   1.70803   1.71305   1.72444   1.73064
 Alpha virt. eigenvalues --    1.73308   1.73356   1.74142   1.74334   1.74479
 Alpha virt. eigenvalues --    1.75587   1.75967   1.76480   1.76540   1.76914
 Alpha virt. eigenvalues --    1.77369   1.77843   1.78435   1.78714   1.79066
 Alpha virt. eigenvalues --    1.79747   1.79824   1.80150   1.80677   1.80817
 Alpha virt. eigenvalues --    1.81482   1.81868   1.82145   1.82576   1.83131
 Alpha virt. eigenvalues --    1.83267   1.83930   1.84117   1.84209   1.84928
 Alpha virt. eigenvalues --    1.85287   1.85846   1.86853   1.87765   1.88096
 Alpha virt. eigenvalues --    1.88266   1.88982   1.89022   1.89609   1.89848
 Alpha virt. eigenvalues --    1.90512   1.91003   1.91756   1.92014   1.92330
 Alpha virt. eigenvalues --    1.93156   1.94069   1.95199   1.95789   1.96060
 Alpha virt. eigenvalues --    1.97890   1.98448   1.99304   1.99804   2.00322
 Alpha virt. eigenvalues --    2.00774   2.01479   2.01531   2.01865   2.02059
 Alpha virt. eigenvalues --    2.02357   2.03042   2.03435   2.04221   2.04511
 Alpha virt. eigenvalues --    2.05546   2.05658   2.06214   2.06899   2.06957
 Alpha virt. eigenvalues --    2.07563   2.08369   2.08594   2.10189   2.10271
 Alpha virt. eigenvalues --    2.10877   2.11633   2.11851   2.12992   2.14706
 Alpha virt. eigenvalues --    2.16288   2.16978   2.17657   2.17944   2.18563
 Alpha virt. eigenvalues --    2.19001   2.19280   2.20319   2.20844   2.21031
 Alpha virt. eigenvalues --    2.21985   2.22724   2.23124   2.23723   2.24435
 Alpha virt. eigenvalues --    2.26124   2.26857   2.29828   2.29999   2.30222
 Alpha virt. eigenvalues --    2.30876   2.31111   2.31298   2.31641   2.32661
 Alpha virt. eigenvalues --    2.33252   2.34671   2.35092   2.35239   2.35759
 Alpha virt. eigenvalues --    2.36319   2.37244   2.37598   2.37999   2.38177
 Alpha virt. eigenvalues --    2.38796   2.39059   2.39512   2.39869   2.40917
 Alpha virt. eigenvalues --    2.41082   2.41355   2.42081   2.43016   2.45651
 Alpha virt. eigenvalues --    2.46317   2.47533   2.49224   2.49627   2.49819
 Alpha virt. eigenvalues --    2.52802   2.53428   2.55664   2.56337   2.58355
 Alpha virt. eigenvalues --    2.59234   2.59524   2.60319   2.62177   2.65798
 Alpha virt. eigenvalues --    2.67365   2.67457   2.67807   2.68000   2.68287
 Alpha virt. eigenvalues --    2.69067   2.69177   2.69308   2.69527   2.69622
 Alpha virt. eigenvalues --    2.69930   2.70145   2.70317   2.70867   2.71402
 Alpha virt. eigenvalues --    2.72426   2.75933   2.76423   2.77049   2.79051
 Alpha virt. eigenvalues --    2.79933   2.80037   2.80331   2.81316   2.82661
 Alpha virt. eigenvalues --    2.83050   2.83859   2.84536   2.85660   2.86063
 Alpha virt. eigenvalues --    2.87071   2.87721   2.89263   2.90453   2.92276
 Alpha virt. eigenvalues --    2.93038   2.93380   2.94833   2.98426   2.99301
 Alpha virt. eigenvalues --    3.00528   3.01893   3.03367   3.03998   3.04414
 Alpha virt. eigenvalues --    3.05293   3.06851   3.07759   3.08528   3.09372
 Alpha virt. eigenvalues --    3.10113   3.14969   3.16077   3.17275   3.19561
 Alpha virt. eigenvalues --    3.20437   3.21440   3.21693   3.22925   3.23397
 Alpha virt. eigenvalues --    3.24003   3.24531   3.29555   3.29837   3.32760
 Alpha virt. eigenvalues --    3.37186   3.38465   3.39525   3.46519   3.50503
 Alpha virt. eigenvalues --    3.51560   3.52596   3.54355   3.57313   3.58433
 Alpha virt. eigenvalues --    3.61336   3.61622   3.61916   3.62704   3.63281
 Alpha virt. eigenvalues --    3.65529   3.69196   3.69982   3.70686   3.75603
 Alpha virt. eigenvalues --    3.76096   3.77756   3.78900   3.80109   3.80853
 Alpha virt. eigenvalues --    3.91014   3.91888   3.97197   4.04826   4.06946
          Condensed to atoms (all electrons):
 Mulliken charges:
               1
     1  Mn  -0.729851
     2  C    0.358335
     3  O   -0.051476
     4  C    0.366187
     5  O   -0.037159
     6  C    0.306225
     7  N   -0.213677
     8  C   -0.043779
     9  C    0.066750
    10  C    0.155493
    11  H    0.075093
    12  H    0.054885
    13  N    0.118246
    14  C   -0.011762
    15  C   -0.148818
    16  C    0.035849
    17  C   -0.023703
    18  C    0.051671
    19  H    0.050189
    20  H    0.058253
    21  N   -0.213410
    22  C   -0.038641
    23  C    0.070009
    24  H    0.064707
    25  C    0.106639
    26  H    0.091763
    27  C    0.112387
    28  H    0.071125
    29  H    0.053099
    30  O   -0.052657
    31  S    0.095761
    32  S    0.090572
    33  C   -0.097393
    34  C   -0.002065
    35  C   -0.015706
    36  C   -0.017546
    37  C   -0.005079
    38  C   -0.083422
    39  C   -0.051405
    40  H    0.041741
    41  H    0.052155
    42  H    0.042062
    43  C   -0.048274
    44  C   -0.083806
    45  C   -0.004203
    46  C   -0.017912
    47  C   -0.014849
    48  C   -0.005245
    49  H    0.042674
    50  H    0.052136
    51  H    0.039583
    52  C   -0.100557
    53  H    0.058429
    54  C    0.155271
    55  H    0.043040
    56  H    0.032353
    57  C   -0.000682
    58  C   -0.024670
    59  H    0.054527
    60  H    0.055833
    61  Br  -0.985294
 Sum of Mulliken charges =  -0.00000
 Mulliken charges with hydrogens summed into heavy atoms:
               1
     1  Mn  -0.729851
     2  C    0.358335
     3  O   -0.051476
     4  C    0.366187
     5  O   -0.037159
     6  C    0.306225
     7  N   -0.213677
     8  C    0.031314
     9  C    0.121635
    10  C    0.187846
    13  N    0.118246
    14  C   -0.011762
    15  C   -0.148818
    16  C    0.086038
    17  C    0.029396
    18  C    0.109924
    21  N   -0.213410
    22  C    0.026067
    23  C    0.128438
    25  C    0.198402
    27  C    0.183512
    30  O   -0.052657
    31  S    0.095761
    32  S    0.090572
    33  C   -0.097393
    34  C   -0.002065
    35  C    0.026034
    36  C    0.034609
    37  C    0.036982
    38  C   -0.083422
    39  C   -0.051405
    43  C   -0.048274
    44  C   -0.083806
    45  C    0.038471
    46  C    0.034225
    47  C    0.024733
    48  C   -0.005245
    52  C   -0.100557
    54  C    0.198311
    57  C    0.055151
    58  C    0.029857
    61  Br  -0.985294
 Electronic spatial extent (au):  <R**2>=          27993.3005
 Charge=             -0.0000 electrons
 Dipole moment (field-independent basis, Debye):
    X=             17.3178    Y=            -13.6278    Z=             -4.1826  Tot=             22.4303
 Quadrupole moment (field-independent basis, Debye-Ang):
   XX=           -309.9512   YY=           -254.0639   ZZ=           -269.5243
   XY=             66.0559   XZ=             26.7002   YZ=              6.4220
 Traceless Quadrupole moment (field-independent basis, Debye-Ang):
   XX=            -32.1047   YY=             23.7826   ZZ=              8.3222
   XY=             66.0559   XZ=             26.7002   YZ=              6.4220
 Octapole moment (field-independent basis, Debye-Ang**2):
  XXX=            286.9705  YYY=            -29.0870  ZZZ=             -9.8400  XYY=            215.5905
  XXY=           -395.2732  XXZ=            -49.7193  XZZ=           -148.4314  YZZ=             -9.1125
  YYZ=            -17.5282  XYZ=            -26.0396
 Hexadecapole moment (field-independent basis, Debye-Ang**3):
 XXXX=         -24121.6053 YYYY=          -7098.8804 ZZZZ=          -4420.2254 XXXY=           1803.2630
 XXXZ=            870.7091 YYYX=            186.3297 YYYZ=             41.3170 ZZZX=            302.4606
 ZZZY=             61.5738 XXYY=          -5486.8826 XXZZ=          -4696.0323 YYZZ=          -2061.8656
 XXYZ=            163.4646 YYXZ=             91.2934 ZZXY=             16.1005
 N-N= 6.435178451921D+03 E-N=-2.741049247182D+04  KE= 6.117291448581D+03
 1\1\GINC-C416-074\FOpt\RwB97XD\Gen\C32H19Br1Mn1N3O3S2\DMCINTOS\17-Mar-
 2023\0\\# wB97XD Gen SCRF=(Solvent=TetraHydroFuran) Opt\\Thian React O
 ptimization\\0,1\Mn,8.4971508903,3.0200860758,14.8506433972\C,10.09831
 2996,3.6063262147,15.5122370883\O,11.0982464175,3.968437762,15.9293013
 468\C,8.8619512405,3.7027324296,13.1852757672\O,9.1020157189,4.1080022
 089,12.1468070151\C,9.2734286708,1.4472933107,14.3616932753\N,6.564102
 6509,2.3979926774,14.145267694\C,4.4089635872,2.9511223449,13.25471230
 63\C,3.9954865558,1.6263790244,13.3536689177\C,6.1734360544,1.12047003
 04,14.1894129655\H,3.7494218432,3.7271861299,12.865557867\H,2.98665686
 84,1.3290676894,13.0594819843\N,7.6119442519,4.7496395469,15.400308297
 5\C,7.1181016416,5.7444514929,15.7133879921\C,6.4957903697,6.949955179
 3,16.1672942843\C,5.2433912351,6.8736547498,16.7944295203\C,4.64009487
 69,8.0420564511,17.2463632892\C,7.1429939286,8.1813767529,15.991144026
 \H,4.7521332047,5.9073915028,16.9182650964\H,8.1113079504,8.223826313,
 15.4914894803\N,7.9834353413,2.2753591763,16.811904662\C,7.5008965739,
 2.6763199808,19.1274143223\C,7.1739262204,1.3366848675,19.3205075408\H
 ,7.4469816907,3.3951007567,19.9451851699\C,5.6888864105,3.2992586342,1
 3.6651353407\H,6.0170354764,4.3382952579,13.5783437894\C,7.8878751192,
 3.1040979572,17.8658856318\H,8.1361579291,4.1505437148,17.6938162472\H
 ,3.6640008908,7.994467401,17.7316646058\O,9.781200687,0.4727135717,14.
 0415805987\S,4.7613780135,-0.4776179131,16.7110220508\S,4.210446833,-3
 .6185244995,16.8541786203\C,4.8986501616,0.6787918758,13.8360504352\C,
 4.5624145236,-0.7664479409,13.961544638\C,4.2533371392,-1.5053315172,1
 2.8143920652\C,3.9844965078,-2.8692878051,12.8938144345\C,4.0246842812
 ,-3.5192158147,14.1238095266\C,4.2876292585,-2.7894649213,15.285461497
 4\C,4.5510454382,-1.4147045266,15.2115080652\H,4.24846295,-1.001887576
 4,11.8454046775\H,3.7600622576,-3.4347877244,11.9878531395\H,3.8415144
 035,-4.5934621625,14.1898036499\C,5.8650084903,-1.5361671098,17.622163
 5193\C,5.6055605224,-2.911667566,17.694611526\C,6.4111245284,-3.738567
 4959,18.4812566226\C,7.4486657859,-3.1872655586,19.2273347693\C,7.7134
 256926,-1.821884661,19.15530274\C,6.9449176338,-0.9860431595,18.338661
 1106\H,6.2142744644,-4.8118936581,18.5141394782\H,8.0661814395,-3.8303
 922396,19.8565708414\H,8.5429331841,-1.3939168959,19.7220190248\C,7.27
 64987219,0.4622548554,18.2400953077\H,6.8395812722,0.9751614262,20.295
 0979794\C,7.7141963001,0.9838848719,17.0217560193\H,7.8542818408,0.299
 5147832,16.1868902694\H,6.9059098437,0.3822838511,14.5113926087\C,5.28
 04070526,9.2704216636,17.0748602414\C,6.5271732607,9.3398053447,16.450
 5036711\H,7.0197118501,10.3038286504,16.3145700681\H,4.8008377206,10.1
 850706009,17.4290399772\Br,5.943457463,6.8051804051,12.3831859714\\Ver
 sion=ES64L-G16RevA.03\State=1-A\HF=-6140.2604076\RMSD=7.420e-09\RMSF=4
 .086e-06\Dipole=0.2980469,-5.6643971,6.7603274\Quadrupole=6.2065982,-2
 .9081608,-3.2984373,4.7675267,8.635218,56.2391718\PG=C01 [X(C32H19Br1M
 n1N3O3S2)]\\@


 THE TRULY SUCCESSFUL PERFORMANCE OF RESEARCHES IN
 INORGANIC CHEMISTRY IS POSSIBLE ONLY TO ONE WHO IS NOT
 ONLY A THEORETICAL CHEMIST, BUT ALSO AN ACCOMPLISHED
 ANALYST AND, MOREOVER, NOT MERELY A PRACTICALLY TRAINED,
 MECHANICAL WORKER, BUT A THINKING CREATIVE ARTIST.
   --  CLEMENS WINKLER, BER. 33, 1697(1900)
 Job cpu time:       6 days  2 hours 17 minutes  3.4 seconds.
 Elapsed time:       0 days 12 hours 28 minutes 29.6 seconds.
 File lengths (MBytes):  RWF=   1112 Int=      0 D2E=      0 Chk=     49 Scr=      1
 Normal termination of Gaussian 16 at Fri Mar 17 08:07:46 2023.
