 Entering Gaussian System, Link 0=g16
 Initial command:
 /home1/apps/gaussian/16rA.03/g16/l1.exe "/tmp/Gau-49014.inp" -scrdir="/tmp/"
 Entering Link 1 = /home1/apps/gaussian/16rA.03/g16/l1.exe PID=     49015.
  
 Copyright (c) 1988,1990,1992,1993,1995,1998,2003,2009,2016,
            Gaussian, Inc.  All Rights Reserved.
  
 This is part of the Gaussian(R) 16 program.  It is based on
 the Gaussian(R) 09 system (copyright 2009, Gaussian, Inc.),
 the Gaussian(R) 03 system (copyright 2003, Gaussian, Inc.),
 the Gaussian(R) 98 system (copyright 1998, Gaussian, Inc.),
 the Gaussian(R) 94 system (copyright 1995, Gaussian, Inc.),
 the Gaussian 92(TM) system (copyright 1992, Gaussian, Inc.),
 the Gaussian 90(TM) system (copyright 1990, Gaussian, Inc.),
 the Gaussian 88(TM) system (copyright 1988, Gaussian, Inc.),
 the Gaussian 86(TM) system (copyright 1986, Carnegie Mellon
 University), and the Gaussian 82(TM) system (copyright 1983,
 Carnegie Mellon University). Gaussian is a federally registered
 trademark of Gaussian, Inc.
  
 This software contains proprietary and confidential information,
 including trade secrets, belonging to Gaussian, Inc.
  
 This software is provided under written license and may be
 used, copied, transmitted, or stored only in accord with that
 written license.
  
 The following legend is applicable only to US Government
 contracts under FAR:
  
                    RESTRICTED RIGHTS LEGEND
  
 Use, reproduction and disclosure by the US Government is
 subject to restrictions as set forth in subparagraphs (a)
 and (c) of the Commercial Computer Software - Restricted
 Rights clause in FAR 52.227-19.
  
 Gaussian, Inc.
 340 Quinnipiac St., Bldg. 40, Wallingford CT 06492
  
  
 ---------------------------------------------------------------
 Warning -- This program may not be used in any manner that
 competes with the business of Gaussian, Inc. or will provide
 assistance to any competitor of Gaussian, Inc.  The licensee
 of this program is prohibited from giving any competitor of
 Gaussian, Inc. access to this program.  By using this program,
 the user acknowledges that Gaussian, Inc. is engaged in the
 business of creating and licensing software in the field of
 computational chemistry and represents and warrants to the
 licensee that it is not a competitor of Gaussian, Inc. and that
 it will not use this program in any manner prohibited above.
 ---------------------------------------------------------------
  

 Cite this work as:
 Gaussian 16, Revision A.03,
 M. J. Frisch, G. W. Trucks, H. B. Schlegel, G. E. Scuseria, 
 M. A. Robb, J. R. Cheeseman, G. Scalmani, V. Barone, 
 G. A. Petersson, H. Nakatsuji, X. Li, M. Caricato, A. V. Marenich, 
 J. Bloino, B. G. Janesko, R. Gomperts, B. Mennucci, H. P. Hratchian, 
 J. V. Ortiz, A. F. Izmaylov, J. L. Sonnenberg, D. Williams-Young, 
 F. Ding, F. Lipparini, F. Egidi, J. Goings, B. Peng, A. Petrone, 
 T. Henderson, D. Ranasinghe, V. G. Zakrzewski, J. Gao, N. Rega, 
 G. Zheng, W. Liang, M. Hada, M. Ehara, K. Toyota, R. Fukuda, 
 J. Hasegawa, M. Ishida, T. Nakajima, Y. Honda, O. Kitao, H. Nakai, 
 T. Vreven, K. Throssell, J. A. Montgomery, Jr., J. E. Peralta, 
 F. Ogliaro, M. J. Bearpark, J. J. Heyd, E. N. Brothers, K. N. Kudin, 
 V. N. Staroverov, T. A. Keith, R. Kobayashi, J. Normand, 
 K. Raghavachari, A. P. Rendell, J. C. Burant, S. S. Iyengar, 
 J. Tomasi, M. Cossi, J. M. Millam, M. Klene, C. Adamo, R. Cammi, 
 J. W. Ochterski, R. L. Martin, K. Morokuma, O. Farkas, 
 J. B. Foresman, and D. J. Fox, Gaussian, Inc., Wallingford CT, 2016.
 
 ******************************************
 Gaussian 16:  ES64L-G16RevA.03 25-Dec-2016
                17-Feb-2023 
 ******************************************
 %Chk=checkpoint.chk
 %NProcShared=12
 Will use up to   12 processors via shared memory.
 -----------------------------------------------------
 #wB97XD Gen Opt=(QST3) SCRF=(Solvent=TetraHydroFuran)
 -----------------------------------------------------
 1/5=1,18=20,26=3,27=203,38=1/1,3;
 2/9=110,12=2,17=6,18=5,40=1/2;
 3/5=7,11=2,25=1,30=1,70=2201,71=1,72=20,74=-58/1,2,3;
 4//1;
 5/5=2,38=5,53=20/2;
 6/7=2,8=2,9=2,10=2,28=1/1;
 7//1,2,3,16;
 1/5=1,18=20,26=3,27=203/3(2);
 2/9=110/2;
 99//99;
 2/9=110/2;
 3/5=7,6=1,11=2,25=1,30=1,70=2205,71=1,72=20,74=-58,82=7/1,2,3;
 4/5=5,16=3,69=1/1;
 5/5=2,38=5,53=20/2;
 7//1,2,3,16;
 1/5=1,18=20,26=3,27=203/3(-5);
 2/9=110/2;
 6/7=2,8=2,9=2,10=2,19=2,28=1/1;
 99/9=1/99;
 ------------------------------------
 Anthracene Transition State Reactant
 ------------------------------------
 Symbolic Z-matrix:
 Charge =  0 Multiplicity = 1
 Mn                   -1.0194   -0.13282  -1.30041 
 C                    -1.95084   1.09527  -2.29845 
 O                    -2.50101   1.87539  -2.92239 
 C                    -1.94096  -1.55093  -2.01671 
 O                    -2.47772  -2.45176  -2.46467 
 C                     0.20025  -0.27236  -2.6431 
 N                     0.04927  -1.53221  -0.03083 
 C                     0.07866  -3.04556   1.8282 
 C                     1.46702  -3.1228    1.77993 
 C                     1.37634  -1.67638  -0.11513 
 H                    -0.49205  -3.5931    2.57846 
 H                     2.01871  -3.71611   2.51212 
 N                    -2.37065   0.02942   0.19031 
 C                    -3.16697   0.13023   1.0198 
 C                    -4.10539   0.2658    2.09209 
 C                    -3.6202    0.43566   3.39952 
 C                    -4.52704   0.57079   4.44399 
 C                    -5.48203   0.23058   1.82486 
 H                    -2.54534   0.46071   3.58681 
 H                    -5.82775   0.09615   0.79488 
 N                     0.05018   1.50245  -0.35369 
 C                     0.08073   3.37421   1.14383 
 C                     1.47006   3.42805   1.09346 
 H                    -0.49002   4.07266   1.75603 
 C                    -0.58809  -2.23239   0.92237 
 H                    -1.67251  -2.14107   0.96102 
 C                    -0.58735   2.39419   0.42298 
 H                    -1.67305   2.32336   0.46813 
 H                    -4.16287   0.70328   5.46409 
 O                     0.94147  -0.36186  -3.51126 
 C                     3.71034   0.05692   0.59661 
 C                     6.44285   0.00195   0.07986 
 C                     2.14993  -2.41932   0.78562 
 C                     3.63318  -2.42875   0.67238 
 C                     4.33237  -3.60918   0.65808 
 C                     5.74721  -3.62943   0.48325 
 C                     6.44286  -2.47015   0.28898 
 C                     5.76733  -1.20725   0.29051 
 C                     4.35206  -1.18133   0.52939 
 H                     3.79554  -4.55679   0.74485 
 H                     6.26618  -4.58974   0.47691 
 H                     7.52231  -2.48926   0.12265 
 C                     4.35394   1.25516   0.28141 
 C                     5.76945   1.23001   0.04342 
 C                     6.44775   2.46555  -0.21061 
 C                     5.75436   3.64152  -0.25402 
 C                     4.33929   3.65908  -0.08147 
 C                     3.63726   2.50702   0.16895 
 H                     7.52743   2.44868  -0.37582 
 H                     6.27529   4.58008  -0.45221 
 H                     3.80437   4.6056   -0.18931 
 C                     2.15352   2.52607   0.2752 
 H                     2.02229   4.15802   1.68899 
 C                     1.37923   1.61496  -0.45427 
 H                     1.87683   0.94259  -1.1522 
 H                     1.87309  -1.17143  -0.94303 
 C                    -5.89955   0.53687   4.18594 
 C                    -6.37363   0.36773   2.88435 
 H                    -7.44706   0.34214   2.68994 
 H                    -6.60706   0.64379   5.01079 
 Br                   -5.87537  -0.28615  -1.89241 
 H                     7.52454  -0.01473  -0.07653 
 H                     2.66679   0.08836   0.89635 
 
 Add virtual bond connecting atoms Br61       and H20        Dist= 5.13D+00.
 -----------------------------------
 Anthracene Transition State Product
 -----------------------------------
 Symbolic Z-matrix:
 Charge =  0 Multiplicity = 1
 Mn                   -1.44286   0.16026  -2.01412 
 C                    -2.20443   1.54882  -2.90891 
 O                    -2.68366   2.42731  -3.46349 
 C                    -2.21304  -1.07612  -3.10367 
 O                    -2.69804  -1.85971  -3.78172 
 C                    -0.01408   0.23546  -3.09485 
 N                    -0.60049  -1.44099  -0.81185 
 C                    -0.82342  -3.27125   0.71581 
 C                     0.55737  -3.36677   0.85296 
 C                     0.7252   -1.5913   -0.72767 
 H                    -1.48955  -3.94449   1.25661 
 H                     1.00241  -4.09964   1.52935 
 N                     0.0775   -0.17244   2.4041 
 C                    -1.05369  -0.19765   2.64732 
 C                    -2.45976  -0.23136   2.94445 
 C                    -3.12645  -1.4621    3.01383 
 C                    -4.49389  -1.48788   3.26678 
 C                    -3.15853   0.96659   3.1448 
 H                    -2.5722   -2.38909   2.86463 
 H                    -2.62937   1.91849   3.09601 
 N                    -0.59083   1.56154  -0.58857 
 C                    -0.80429   3.1413    1.19825 
 C                     0.5769    3.20654   1.34817 
 H                    -1.46646   3.7285    1.83564 
 C                    -1.3638   -2.28301  -0.09733 
 H                    -2.44255  -2.14076  -0.17604 
 C                    -1.34964   2.291     0.24463 
 H                    -2.42913   2.16919   0.14486 
 H                    -5.01736  -2.44419   3.31559 
 O                     0.86165   0.2873   -3.83871 
 C                     2.91235  -0.04746   0.58557 
 C                     5.69235  -0.04273   0.41158 
 C                     1.36924  -2.49754   0.12252 
 C                     2.85402  -2.5063    0.21569 
 C                     3.56205  -3.67493   0.08887 
 C                     4.98786  -3.68132   0.09599 
 C                     5.69088  -2.51399   0.19056 
 C                     5.00769  -1.26191   0.32192 
 C                     3.57322  -1.26107   0.38259 
 H                     3.02896  -4.61681  -0.06081 
 H                     5.51371  -4.63251  -0.00729 
 H                     6.783    -2.51728   0.16154 
 C                     3.58071   1.17889   0.56648 
 C                     5.01522   1.18024   0.5065 
 C                     5.70587   2.43375   0.56536 
 C                     5.00976   3.60611   0.64834 
 C                     3.58394   3.60941   0.64 
 C                     2.86897   2.43926   0.58848 
 H                     6.79801   2.43509   0.53708 
 H                     5.54131   4.55882   0.69009 
 H                     3.05653   4.56629   0.63458 
 C                     1.38429   2.45343   0.49431 
 H                     1.02578   3.82526   2.12808 
 C                     0.73572   1.68987  -0.48314 
 H                     1.34033   1.15471  -1.214 
 H                     1.33286  -0.9558   -1.37019 
 C                    -5.19354  -0.29487   3.45284 
 C                    -4.52569   0.92909   3.39758 
 H                    -5.07398   1.86057   3.54798 
 H                    -6.26798  -0.31941   3.64516 
 Br                   -3.72263   0.07153  -0.71897 
 H                     1.84487  -0.05936   0.78995 
 H                     6.78538  -0.04496   0.39399 
 
 Add virtual bond connecting atoms N7         and Mn1        Dist= 4.11D+00.
 Add virtual bond connecting atoms N21        and Mn1        Dist= 4.11D+00.
 Add virtual bond connecting atoms H11        and H19        Dist= 4.70D+00.
 Add virtual bond connecting atoms H24        and H20        Dist= 4.71D+00.
 Add virtual bond connecting atoms H62        and N13        Dist= 4.53D+00.
 -----------------------------------------
 Anthracene Transition State Initial Guess
 -----------------------------------------
 Symbolic Z-matrix:
 Charge =  0 Multiplicity = 1
 Mn                   -0.94293  -0.17642  -2.26394 
 C                    -1.65357   1.01106  -3.46599 
 O                    -2.00379   1.76304  -4.25399 
 C                    -1.66809  -1.59062  -3.18234 
 O                    -2.0015   -2.50676  -3.78205 
 C                     0.47502  -0.30833  -3.31463 
 N                    -0.2261   -1.59812  -0.97492 
 C                    -0.68387  -3.34828   0.59903 
 C                     0.64087  -3.34084   1.03182 
 C                     1.06234  -1.68139  -0.62877 
 H                    -1.4198   -4.02442   1.04286 
 H                     0.963    -3.99576   1.84578 
 N                    -1.92136   0.06925   0.27427 
 C                    -2.28617   0.18221   1.36857 
 C                    -2.78729   0.33651   2.71412 
 C                    -1.94867   0.78798   3.73653 
 C                    -2.45853   0.94998   5.02742 
 C                    -4.1255    0.03825   2.98349 
 H                    -0.91008   1.01715   3.51301 
 H                    -4.76197  -0.3138    2.17092 
 N                    -0.19535   1.4276   -1.24874 
 C                    -0.64667   3.38775   0.05416 
 C                     0.68323   3.45636   0.46351 
 H                    -1.38359   4.10863   0.41031 
 C                    -1.08126  -2.45542  -0.38447 
 H                    -2.12755  -2.40055  -0.69869 
 C                    -1.04964   2.35521  -0.78094 
 H                    -2.09847   2.23666  -1.06604 
 H                    -1.81338   1.30762   5.82994 
 O                     1.35774  -0.41243  -4.05019 
 C                     3.02989   0.06311   0.76365 
 C                     5.79397   0.07389   1.10824 
 C                     1.555    -2.48738   0.40634 
 C                     2.99863  -2.43493   0.78007 
 C                     3.7093   -3.59393   0.96671 
 C                     5.111    -3.577     1.24621 
 C                     5.79824  -2.39801   1.29077 
 C                     5.11428  -1.15212   1.09431 
 C                     3.69099  -1.16268   0.88778 
 H                     3.20387  -4.55855   0.86077 
 H                     5.63449  -4.52583   1.39013 
 H                     6.87896  -2.38267   1.4662 
 C                     3.71187   1.281     0.66319 
 C                     5.13464   1.28758   0.87126 
 C                     5.83789   2.53903   0.84251 
 C                     5.16782   3.70074   0.5907 
 C                     3.76544   3.68841   0.3143 
 C                     3.03782   2.52349   0.33234 
 H                     6.91872   2.54054   1.01857 
 H                     5.70599   4.65311   0.56613 
 H                     3.27593   4.6268    0.04025 
 C                     1.59379   2.52548  -0.0402 
 H                     1.00895   4.22092   1.17553 
 C                     1.09447   1.57193  -0.93899 
 H                     1.78923   0.88695  -1.42217 
 H                     1.7622   -1.0714   -1.20128 
 C                    -3.79009   0.65823   5.29778 
 C                    -4.62097   0.20004   4.2801 
 H                    -5.66141  -0.02882   4.49849 
 H                    -4.18586   0.78877   6.31371 
 Br                   -3.97147  -0.11388  -2.05532 
 H                     6.87408   0.08277   1.29206 
 H                     1.94162   0.06975   0.72863 
 

 GradGradGradGradGradGradGradGradGradGradGradGradGradGradGradGradGradGrad
 Berny optimization.
 Initialization pass.
                           ----------------------------
                           !    Initial Parameters    !
                           ! (Angstroms and Degrees)  !
 --------------------------                            --------------------------
 ! Name  Definition         TS        Reactant Product Derivative Info.         !
 --------------------------------------------------------------------------------
 ! R1    R(1,2)             1.833     1.8363    1.819  estimate D2E/DX2         !
 ! R2    R(1,4)             1.8356    1.8367    1.819  estimate D2E/DX2         !
 ! R3    R(1,6)             1.7697    1.8193    1.7931 estimate D2E/DX2         !
 ! R4    R(1,7)             2.0486    2.1708    2.1723 estimate D2E/DX2         !
 ! R5    R(1,13)            2.7313    2.0185    4.6843 estimate D2E/DX2         !
 ! R6    R(1,21)            2.0402    2.1713    2.173  estimate D2E/DX2         !
 ! R7    R(1,61)            3.0364    4.8943    2.6235 estimate D2E/DX2         !
 ! R8    R(2,3)             1.1442    1.1404    1.1441 estimate D2E/DX2         !
 ! R9    R(4,5)             1.1446    1.1403    1.1441 estimate D2E/DX2         !
 ! R10   R(6,30)            1.1537    1.145     1.1502 estimate D2E/DX2         !
 ! R11   R(7,10)            1.3367    1.3375    1.3368 estimate D2E/DX2         !
 ! R12   R(7,25)            1.3472    1.3435    1.3425 estimate D2E/DX2         !
 ! R13   R(8,9)             1.3937    1.3913    1.3909 estimate D2E/DX2         !
 ! R14   R(8,11)            1.0935    1.0901    1.0906 estimate D2E/DX2         !
 ! R15   R(8,25)            1.3865    1.3879    1.3892 estimate D2E/DX2         !
 ! R16   R(9,12)            1.0933    1.092     1.0921 estimate D2E/DX2         !
 ! R17   R(9,33)            1.3983    1.3964    1.3958 estimate D2E/DX2         !
 ! R18   R(10,33)           1.4014    1.4006    1.3996 estimate D2E/DX2         !
 ! R19   R(10,56)           1.0907    1.0896    1.089  estimate D2E/DX2         !
 ! R20   R(11,19)           5.6373    4.6547    2.4854 estimate D2E/DX2         !
 ! R21   R(13,14)           1.159     1.1543    1.1573 estimate D2E/DX2         !
 ! R22   R(13,62)           8.8541    9.8989    2.3962 estimate D2E/DX2         !
 ! R23   R(14,15)           1.4441    1.4314    1.4375 estimate D2E/DX2         !
 ! R24   R(15,16)           1.3973    1.4049    1.4014 estimate D2E/DX2         !
 ! R25   R(15,18)           1.3973    1.4028    1.4013 estimate D2E/DX2         !
 ! R26   R(16,17)           1.3974    1.3898    1.3909 estimate D2E/DX2         !
 ! R27   R(16,19)           1.0868    1.0913    1.0903 estimate D2E/DX2         !
 ! R28   R(17,29)           1.09      1.0912    1.0913 estimate D2E/DX2         !
 ! R29   R(17,57)           1.3897    1.397     1.3955 estimate D2E/DX2         !
 ! R30   R(18,20)           1.0906    1.0947    1.0902 estimate D2E/DX2         !
 ! R31   R(18,58)           1.3974    1.3915    1.3908 estimate D2E/DX2         !
 ! R32   R(20,24)           5.837     6.7252    2.4934 estimate D2E/DX2         !
 ! R33   R(20,61)           4.3042    2.7148    4.3773 estimate D2E/DX2         !
 ! R34   R(21,27)           1.345     1.3435    1.3424 estimate D2E/DX2         !
 ! R35   R(21,54)           1.3343    1.3376    1.3369 estimate D2E/DX2         !
 ! R36   R(22,23)           1.3932    1.3913    1.3908 estimate D2E/DX2         !
 ! R37   R(22,24)           1.0907    1.0901    1.0907 estimate D2E/DX2         !
 ! R38   R(22,27)           1.3878    1.3879    1.3892 estimate D2E/DX2         !
 ! R39   R(23,52)           1.3962    1.3965    1.3958 estimate D2E/DX2         !
 ! R40   R(23,53)           1.0944    1.092     1.092  estimate D2E/DX2         !
 ! R41   R(25,26)           1.0938    1.0889    1.0909 estimate D2E/DX2         !
 ! R42   R(27,28)           1.0933    1.0889    1.0909 estimate D2E/DX2         !
 ! R43   R(31,39)           1.3982    1.3963    1.3967 estimate D2E/DX2         !
 ! R44   R(31,43)           1.3994    1.3962    1.3968 estimate D2E/DX2         !
 ! R45   R(31,62)           3.8804    3.8738    1.0869 estimate D2E/DX2         !
 ! R46   R(31,63)           1.0888    1.0862    3.8778 estimate D2E/DX2         !
 ! R47   R(32,38)           1.4019    1.401     1.4011 estimate D2E/DX2         !
 ! R48   R(32,44)           1.4014    1.401     1.4011 estimate D2E/DX2         !
 ! R49   R(32,62)           1.0957    1.0931    3.8661 estimate D2E/DX2         !
 ! R50   R(32,63)           3.871     3.8643    1.0932 estimate D2E/DX2         !
 ! R51   R(33,34)           1.4921    1.4876    1.4877 estimate D2E/DX2         !
 ! R52   R(34,35)           1.3723    1.372     1.3723 estimate D2E/DX2         !
 ! R53   R(34,39)           1.4524    1.4468    1.4477 estimate D2E/DX2         !
 ! R54   R(35,36)           1.4294    1.4257    1.4258 estimate D2E/DX2         !
 ! R55   R(35,40)           1.0942    1.0926    1.0926 estimate D2E/DX2         !
 ! R56   R(36,37)           1.3654    1.3659    1.366  estimate D2E/DX2         !
 ! R57   R(36,41)           1.0932    1.0916    1.0918 estimate D2E/DX2         !
 ! R58   R(37,38)           1.4348    1.4322    1.4324 estimate D2E/DX2         !
 ! R59   R(37,42)           1.095     1.0924    1.0925 estimate D2E/DX2         !
 ! R60   R(38,39)           1.4382    1.4355    1.4358 estimate D2E/DX2         !
 ! R61   R(43,44)           1.4379    1.4356    1.4358 estimate D2E/DX2         !
 ! R62   R(43,48)           1.4518    1.4469    1.4476 estimate D2E/DX2         !
 ! R63   R(44,45)           1.4358    1.4322    1.4324 estimate D2E/DX2         !
 ! R64   R(45,46)           1.3645    1.3659    1.366  estimate D2E/DX2         !
 ! R65   R(45,49)           1.0951    1.0924    1.0925 estimate D2E/DX2         !
 ! R66   R(46,47)           1.4294    1.4257    1.4258 estimate D2E/DX2         !
 ! R67   R(46,50)           1.0942    1.0916    1.0918 estimate D2E/DX2         !
 ! R68   R(47,48)           1.3736    1.3722    1.3723 estimate D2E/DX2         !
 ! R69   R(47,51)           1.0933    1.0926    1.0926 estimate D2E/DX2         !
 ! R70   R(48,52)           1.4913    1.4877    1.4877 estimate D2E/DX2         !
 ! R71   R(52,54)           1.4023    1.4006    1.3997 estimate D2E/DX2         !
 ! R72   R(54,55)           1.0887    1.0894    1.0891 estimate D2E/DX2         !
 ! R73   R(57,58)           1.3914    1.3955    1.3954 estimate D2E/DX2         !
 ! R74   R(57,60)           1.0981    1.092     1.0918 estimate D2E/DX2         !
 ! R75   R(58,59)           1.0875    1.0912    1.0913 estimate D2E/DX2         !
 ! A1    A(2,1,4)          91.0226   92.8602   92.6906 estimate D2E/DX2         !
 ! A2    A(2,1,6)          88.2568   89.4398   90.2928 estimate D2E/DX2         !
 ! A3    L(2,1,7,4,-1)    176.3406  181.5632  182.3854 estimate D2E/DX2         !
 ! A4    L(2,1,7,4,-2)    180.7818  182.4131  183.4865 estimate D2E/DX2         !
 ! A5    A(2,1,13)        114.3468   90.4629  130.8496 estimate D2E/DX2         !
 ! A6    A(2,1,21)         87.6531   89.035    89.6911 estimate D2E/DX2         !
 ! A7    A(2,1,61)         69.2083   56.7659   84.5395 estimate D2E/DX2         !
 ! A8    A(4,1,6)          87.8252   89.3883   90.279  estimate D2E/DX2         !
 ! A9    A(4,1,7)          85.318    88.703    89.6949 estimate D2E/DX2         !
 ! A10   A(4,1,13)        113.1247   90.8132  130.8505 estimate D2E/DX2         !
 ! A11   L(4,1,21,2,-1)   178.6757  181.8953  182.3816 estimate D2E/DX2         !
 ! A12   L(4,1,21,2,-2)   178.6661  177.8035  176.5025 estimate D2E/DX2         !
 ! A13   A(4,1,61)         69.8916   55.3068   84.5361 estimate D2E/DX2         !
 ! A14   A(6,1,7)          92.3774   92.9897   93.1816 estimate D2E/DX2         !
 ! A15   L(6,1,13,2,-1)   202.6036  179.9027  221.1424 estimate D2E/DX2         !
 ! A16   L(6,1,13,2,-2)   203.8465  180.197   245.2912 estimate D2E/DX2         !
 ! A17   A(6,1,21)         93.4651   92.827    93.2059 estimate D2E/DX2         !
 ! A18   L(6,1,61,2,-1)   157.4651  146.2057  174.8323 estimate D2E/DX2         !
 ! A19   L(6,1,61,2,-2)   155.7942  133.7926  174.5395 estimate D2E/DX2         !
 ! A20   A(7,1,13)         66.6111   87.1023   45.5557 estimate D2E/DX2         !
 ! A21   A(7,1,21)         95.987    89.3121   87.7196 estimate D2E/DX2         !
 ! A22   A(7,1,61)        108.6674  122.615    92.2245 estimate D2E/DX2         !
 ! A23   A(13,1,21)        66.3051   86.9744   45.554  estimate D2E/DX2         !
 ! A24   A(21,1,61)       108.367   124.4079   92.2164 estimate D2E/DX2         !
 ! A25   L(1,2,3,18,-1)   184.3088  181.2299  179.5621 estimate D2E/DX2         !
 ! A26   L(1,2,3,22,-1)   180.1561  179.0518  179.5279 estimate D2E/DX2         !
 ! A27   L(1,2,3,18,-2)   176.6833  178.8291  179.7608 estimate D2E/DX2         !
 ! A28   L(1,2,3,22,-2)   174.7394  178.5473  180.1171 estimate D2E/DX2         !
 ! A29   L(1,4,5,8,-1)    179.1044  178.9781  179.5473 estimate D2E/DX2         !
 ! A30   L(1,4,5,8,-2)    186.4155  181.8662  179.8672 estimate D2E/DX2         !
 ! A31   L(1,6,30,10,-1)  182.3395  181.4747  182.6714 estimate D2E/DX2         !
 ! A32   L(1,6,30,10,-2)  177.3978  178.99    178.0594 estimate D2E/DX2         !
 ! A33   A(1,7,10)        122.9184  121.4044  120.1501 estimate D2E/DX2         !
 ! A34   A(1,7,25)        119.6895  121.1552  122.4403 estimate D2E/DX2         !
 ! A35   A(10,7,25)       117.3044  117.3369  117.3751 estimate D2E/DX2         !
 ! A36   A(9,8,11)        121.1298  121.2244  121.0019 estimate D2E/DX2         !
 ! A37   A(9,8,25)        119.2929  119.2911  119.5213 estimate D2E/DX2         !
 ! A38   A(11,8,25)       119.5512  119.4687  119.4588 estimate D2E/DX2         !
 ! A39   A(8,9,12)        120.536   120.7321  120.7784 estimate D2E/DX2         !
 ! A40   A(8,9,33)        119.0622  118.9955  118.8861 estimate D2E/DX2         !
 ! A41   A(12,9,33)       120.4012  120.2701  120.331  estimate D2E/DX2         !
 ! A42   A(7,10,33)       124.4691  124.3771  124.5675 estimate D2E/DX2         !
 ! A43   A(7,10,56)       116.5974  116.7619  116.7806 estimate D2E/DX2         !
 ! A44   A(33,10,56)      118.9333  118.8603  118.6518 estimate D2E/DX2         !
 ! A45   A(8,11,19)        64.1518   86.7094  101.5699 estimate D2E/DX2         !
 ! A46   L(1,13,14,8,-1)  179.4795  181.4217  143.4264 estimate D2E/DX2         !
 ! A47   L(1,13,14,8,-2)  177.3649  180.9146  272.8095 estimate D2E/DX2         !
 ! A48   A(14,13,62)      101.7699  135.1856  149.7131 estimate D2E/DX2         !
 ! A49   L(13,14,15,11,-1)  180.8678  178.6485  179.8378 estimate D2E/DX2       !
 ! A50   L(13,14,15,1,-1)  181.0196  179.3423  179.8053 estimate D2E/DX2        !
 ! A51   L(13,14,15,11,-2)  181.9145  177.655  180.1544 estimate D2E/DX2        !
 ! A52   L(13,14,15,1,-2)   90.4413  323.0409  179.8888 estimate D2E/DX2        !
 ! A53   A(14,15,16)      120.5322  118.8297  119.745  estimate D2E/DX2         !
 ! A54   A(14,15,18)      119.2864  119.8879  119.8197 estimate D2E/DX2         !
 ! A55   A(16,15,18)      120.1798  121.2822  120.4296 estimate D2E/DX2         !
 ! A56   A(15,16,17)      119.6322  119.0657  119.537  estimate D2E/DX2         !
 ! A57   A(15,16,19)      119.4189  120.1746  119.8713 estimate D2E/DX2         !
 ! A58   A(17,16,19)      120.9464  120.7597  120.591  estimate D2E/DX2         !
 ! A59   A(16,17,29)      120.1475  119.7748  119.7337 estimate D2E/DX2         !
 ! A60   A(16,17,57)      120.331   119.9927  120.0872 estimate D2E/DX2         !
 ! A61   A(29,17,57)      119.5215  120.2326  120.1787 estimate D2E/DX2         !
 ! A62   A(15,18,20)      118.9611  119.4873  119.8693 estimate D2E/DX2         !
 ! A63   A(15,18,58)      119.5862  118.7694  119.546  estimate D2E/DX2         !
 ! A64   A(20,18,58)      121.4524  121.7433  120.5838 estimate D2E/DX2         !
 ! A65   A(11,19,16)       79.3465  112.1661  147.3575 estimate D2E/DX2         !
 ! A66   A(18,20,24)       69.0454   62.7598  151.9875 estimate D2E/DX2         !
 ! A67   A(18,20,61)      127.5483  162.5838   63.2149 estimate D2E/DX2         !
 ! A68   A(1,21,27)       118.8518  121.2128  122.409  estimate D2E/DX2         !
 ! A69   A(1,21,54)       123.6946  121.3339  120.1792 estimate D2E/DX2         !
 ! A70   A(27,21,54)      117.2982  117.3326  117.3719 estimate D2E/DX2         !
 ! A71   A(23,22,24)      121.0962  121.2226  120.9754 estimate D2E/DX2         !
 ! A72   A(23,22,27)      119.3826  119.2873  119.5087 estimate D2E/DX2         !
 ! A73   A(24,22,27)      119.4769  119.4755  119.497  estimate D2E/DX2         !
 ! A74   A(22,23,52)      118.9282  119.0084  118.8945 estimate D2E/DX2         !
 ! A75   A(22,23,53)      120.6438  120.7383  120.7806 estimate D2E/DX2         !
 ! A76   A(52,23,53)      120.4255  120.2517  120.3201 estimate D2E/DX2         !
 ! A77   A(20,24,22)       89.3571   87.5038  100.821  estimate D2E/DX2         !
 ! A78   A(7,25,8)        122.5991  122.7164  122.4501 estimate D2E/DX2         !
 ! A79   A(7,25,26)       116.7026  116.9941  116.2352 estimate D2E/DX2         !
 ! A80   A(8,25,26)       120.679   120.2893  121.3081 estimate D2E/DX2         !
 ! A81   A(21,27,22)      122.5467  122.7187  122.4637 estimate D2E/DX2         !
 ! A82   A(21,27,28)      116.3476  116.996   116.2248 estimate D2E/DX2         !
 ! A83   A(22,27,28)      121.0739  120.2851  121.3045 estimate D2E/DX2         !
 ! A84   A(39,31,43)      122.6088  122.5723  122.3093 estimate D2E/DX2         !
 ! A85   A(39,31,62)       61.5719   61.4914  118.8492 estimate D2E/DX2         !
 ! A86   A(39,31,63)      118.7352  118.7182   61.3666 estimate D2E/DX2         !
 ! A87   A(43,31,62)       61.4836   61.4953  118.8238 estimate D2E/DX2         !
 ! A88   A(43,31,63)      118.6494  118.7067   61.3697 estimate D2E/DX2         !
 ! A89   A(38,32,44)      121.8444  121.9166  121.8486 estimate D2E/DX2         !
 ! A90   A(38,32,62)      119.1245  119.0443   61.0678 estimate D2E/DX2         !
 ! A91   A(38,32,63)       61.0257   61.0778  119.0633 estimate D2E/DX2         !
 ! A92   A(44,32,62)      119.0222  119.0318   61.0645 estimate D2E/DX2         !
 ! A93   A(44,32,63)       61.0616   61.068   119.0833 estimate D2E/DX2         !
 ! A94   A(9,33,10)       116.8482  117.0675  116.9662 estimate D2E/DX2         !
 ! A95   A(9,33,34)       122.8129  122.5908  122.9607 estimate D2E/DX2         !
 ! A96   A(10,33,34)      120.3264  120.3387  120.073  estimate D2E/DX2         !
 ! A97   A(33,34,35)      120.359   120.9546  120.9417 estimate D2E/DX2         !
 ! A98   A(33,34,39)      120.7003  119.8331  119.8661 estimate D2E/DX2         !
 ! A99   A(35,34,39)      118.8718  119.1791  119.1341 estimate D2E/DX2         !
 ! A100  A(34,35,36)      121.6296  121.2786  121.2856 estimate D2E/DX2         !
 ! A101  A(34,35,40)      119.4849  119.6689  119.674  estimate D2E/DX2         !
 ! A102  A(36,35,40)      118.8401  119.0134  118.9947 estimate D2E/DX2         !
 ! A103  A(35,36,37)      120.6766  120.7171  120.7422 estimate D2E/DX2         !
 ! A104  A(35,36,41)      119.0157  119.0123  119.0173 estimate D2E/DX2         !
 ! A105  A(37,36,41)      120.274   120.2457  120.2125 estimate D2E/DX2         !
 ! A106  A(36,37,38)      120.3568  120.5328  120.5232 estimate D2E/DX2         !
 ! A107  A(36,37,42)      120.9378  120.6705  120.6689 estimate D2E/DX2         !
 ! A108  A(38,37,42)      118.7025  118.7953  118.8069 estimate D2E/DX2         !
 ! A109  A(32,38,37)      121.7972  122.24    122.2362 estimate D2E/DX2         !
 ! A110  A(32,38,39)      119.1864  118.9991  119.0121 estimate D2E/DX2         !
 ! A111  A(37,38,39)      119.0147  118.758   118.7457 estimate D2E/DX2         !
 ! A112  A(31,39,34)      122.4083  122.1059  121.9443 estimate D2E/DX2         !
 ! A113  A(31,39,38)      118.3085  118.4984  118.6455 estimate D2E/DX2         !
 ! A114  A(34,39,38)      119.2623  119.389   119.4053 estimate D2E/DX2         !
 ! A115  A(31,43,44)      118.4104  118.4837  118.6513 estimate D2E/DX2         !
 ! A116  A(31,43,48)      122.3384  122.1247  121.9344 estimate D2E/DX2         !
 ! A117  A(44,43,48)      119.2399  119.3848  119.4097 estimate D2E/DX2         !
 ! A118  A(32,44,43)      119.08    119.0099  119.0034 estimate D2E/DX2         !
 ! A119  A(32,44,45)      121.8575  122.2187  122.2494 estimate D2E/DX2         !
 ! A120  A(43,44,45)      119.06    118.7686  118.7409 estimate D2E/DX2         !
 ! A121  A(44,45,46)      120.3464  120.528   120.5213 estimate D2E/DX2         !
 ! A122  A(44,45,49)      118.7769  118.7904  118.817  estimate D2E/DX2         !
 ! A123  A(46,45,49)      120.8751  120.6802  120.6609 estimate D2E/DX2         !
 ! A124  A(45,46,47)      120.6713  120.7068  120.7457 estimate D2E/DX2         !
 ! A125  A(45,46,50)      120.2409  120.2507  120.209  estimate D2E/DX2         !
 ! A126  A(47,46,50)      119.0588  119.0168  119.0169 estimate D2E/DX2         !
 ! A127  A(46,47,48)      121.6329  121.3037  121.2822 estimate D2E/DX2         !
 ! A128  A(46,47,51)      118.7076  118.9924  118.9961 estimate D2E/DX2         !
 ! A129  A(48,47,51)      119.6056  119.663   119.6765 estimate D2E/DX2         !
 ! A130  A(43,48,47)      118.8733  119.1567  119.1323 estimate D2E/DX2         !
 ! A131  A(43,48,52)      120.5072  119.9705  119.8668 estimate D2E/DX2         !
 ! A132  A(47,48,52)      120.5648  120.8346  120.9443 estimate D2E/DX2         !
 ! A133  A(23,52,48)      122.8374  122.5636  122.9353 estimate D2E/DX2         !
 ! A134  A(23,52,54)      116.8967  117.0493  116.97   estimate D2E/DX2         !
 ! A135  A(48,52,54)      120.2647  120.3865  120.0947 estimate D2E/DX2         !
 ! A136  A(21,54,52)      124.5098  124.391   124.5567 estimate D2E/DX2         !
 ! A137  A(21,54,55)      116.4727  116.7506  116.7927 estimate D2E/DX2         !
 ! A138  A(52,54,55)      119.0155  118.8579  118.6503 estimate D2E/DX2         !
 ! A139  A(17,57,58)      119.9347  120.597   120.3067 estimate D2E/DX2         !
 ! A140  A(17,57,60)      120.0252  119.6479  119.8457 estimate D2E/DX2         !
 ! A141  A(58,57,60)      120.0401  119.7552  119.8473 estimate D2E/DX2         !
 ! A142  A(18,58,57)      120.3338  120.2931  120.0864 estimate D2E/DX2         !
 ! A143  A(18,58,59)      120.0781  119.4952  119.7296 estimate D2E/DX2         !
 ! A144  A(57,58,59)      119.5877  120.2117  120.1834 estimate D2E/DX2         !
 ! A145  A(13,62,31)        1.2424    8.5014  148.3802 estimate D2E/DX2         !
 ! D1    D(4,1,7,10)      127.2762  118.0929  116.3527 estimate D2E/DX2         !
 ! D2    D(4,1,7,25)      -56.2244  -65.7047  -65.8409 estimate D2E/DX2         !
 ! D3    D(6,1,7,10)       39.6551   28.7733   26.0902 estimate D2E/DX2         !
 ! D4    D(6,1,7,25)     -143.8455 -155.0243 -156.1034 estimate D2E/DX2         !
 ! D5    D(13,1,7,10)    -115.03   -151.027   -86.5137 estimate D2E/DX2         !
 ! D6    D(13,1,7,25)      61.4695   25.1754   91.2927 estimate D2E/DX2         !
 ! D7    D(21,1,7,10)     -54.082   -64.0218  -66.9962 estimate D2E/DX2         !
 ! D8    D(21,1,7,25)     122.4175  112.1806  110.8102 estimate D2E/DX2         !
 ! D9    D(61,1,7,10)    -165.7887  164.4312 -159.1273 estimate D2E/DX2         !
 ! D10   D(61,1,7,25)      10.7108  -19.3665   18.679  estimate D2E/DX2         !
 ! D11   D(2,1,15,16)    -111.9114 -132.5668  117.3152 estimate D2E/DX2         !
 ! D12   D(2,1,15,18)      66.9306   46.8712   -7.0382 estimate D2E/DX2         !
 ! D13   D(4,1,15,16)     145.1679  134.5698    8.9434 estimate D2E/DX2         !
 ! D14   D(4,1,15,18)     -35.9901  -45.9921 -115.41   estimate D2E/DX2         !
 ! D15   D(7,1,15,16)      72.0333   45.9148  -62.8995 estimate D2E/DX2         !
 ! D16   D(7,1,15,18)    -109.1247 -134.6472  172.7471 estimate D2E/DX2         !
 ! D17   D(21,1,15,16)    -36.799   -43.5417 -170.8879 estimate D2E/DX2         !
 ! D18   D(21,1,15,18)    142.043   135.8964   64.7587 estimate D2E/DX2         !
 ! D19   D(2,1,21,27)      59.4238   64.9775   66.0092 estimate D2E/DX2         !
 ! D20   D(2,1,21,54)    -125.2369 -119.1227 -116.3481 estimate D2E/DX2         !
 ! D21   D(6,1,21,27)     147.5337  154.3689  156.2852 estimate D2E/DX2         !
 ! D22   D(6,1,21,54)     -37.127   -29.7313  -26.0721 estimate D2E/DX2         !
 ! D23   D(7,1,21,27)    -119.7073 -112.6715 -110.6537 estimate D2E/DX2         !
 ! D24   D(7,1,21,54)      55.632    63.2282   66.989  estimate D2E/DX2         !
 ! D25   D(13,1,21,27)    -58.5181  -25.5371  -91.1356 estimate D2E/DX2         !
 ! D26   D(13,1,21,54)    116.8212  150.3627   86.5071 estimate D2E/DX2         !
 ! D27   D(61,1,21,27)     -7.7494   17.5031  -18.5141 estimate D2E/DX2         !
 ! D28   D(61,1,21,54)    167.5899 -166.5972  159.1286 estimate D2E/DX2         !
 ! D29   D(1,7,10,33)     169.0137  170.9989  173.1231 estimate D2E/DX2         !
 ! D30   D(1,7,10,56)     -10.8523   -8.6878   -6.7473 estimate D2E/DX2         !
 ! D31   D(25,7,10,33)     -7.5641   -5.3429   -4.7922 estimate D2E/DX2         !
 ! D32   D(25,7,10,56)    172.5699  174.9705  175.3374 estimate D2E/DX2         !
 ! D33   D(1,7,25,8)     -173.1821 -174.1697 -177.2166 estimate D2E/DX2         !
 ! D34   D(1,7,25,26)       5.2282    5.9781    1.8568 estimate D2E/DX2         !
 ! D35   D(10,7,25,8)       3.5111    2.1817    0.6474 estimate D2E/DX2         !
 ! D36   D(10,7,25,26)   -178.0786 -177.6705  179.7208 estimate D2E/DX2         !
 ! D37   D(11,8,9,12)      -1.6615   -1.589    -1.8553 estimate D2E/DX2         !
 ! D38   D(11,8,9,33)     178.0694  178.9627  178.9172 estimate D2E/DX2         !
 ! D39   D(25,8,9,12)     176.4713  176.9571  176.5923 estimate D2E/DX2         !
 ! D40   D(25,8,9,33)      -3.7977   -2.4911   -2.6352 estimate D2E/DX2         !
 ! D41   D(9,8,11,19)      89.8958  128.0158  111.5414 estimate D2E/DX2         !
 ! D42   D(25,8,11,19)    -88.2323  -50.5278  -66.9071 estimate D2E/DX2         !
 ! D43   D(9,8,25,7)        2.0168    1.6357    2.9883 estimate D2E/DX2         !
 ! D44   D(9,8,25,26)    -176.3319 -178.5168 -176.0389 estimate D2E/DX2         !
 ! D45   D(11,8,25,7)    -179.8204 -179.7923 -178.5399 estimate D2E/DX2         !
 ! D46   D(11,8,25,26)      1.8308    0.0552    2.4328 estimate D2E/DX2         !
 ! D47   D(8,9,33,10)       0.2077   -0.3199   -1.0696 estimate D2E/DX2         !
 ! D48   D(8,9,33,34)    -178.5048  179.0584  179.0325 estimate D2E/DX2         !
 ! D49   D(12,9,33,10)    179.9391 -179.7707  179.6995 estimate D2E/DX2         !
 ! D50   D(12,9,33,34)      1.2265   -0.3925   -0.1985 estimate D2E/DX2         !
 ! D51   D(7,10,33,9)       5.736     4.4392    5.015  estimate D2E/DX2         !
 ! D52   D(7,10,33,34)   -175.5175 -174.9538 -175.0839 estimate D2E/DX2         !
 ! D53   D(56,10,33,9)   -174.4009 -175.8802 -175.1168 estimate D2E/DX2         !
 ! D54   D(56,10,33,34)     4.3455    4.7267    4.7842 estimate D2E/DX2         !
 ! D55   D(8,11,19,16)    151.3835  117.7639   53.3578 estimate D2E/DX2         !
 ! D56   D(62,13,15,16)    17.0636    0.4233   89.7844 estimate D2E/DX2         !
 ! D57   D(62,13,15,18)  -163.964  -179.8178  -89.249  estimate D2E/DX2         !
 ! D58   D(14,13,62,31)   176.3391    1.3918 -178.9573 estimate D2E/DX2         !
 ! D59   D(14,15,16,17)   179.0227  179.857  -178.3155 estimate D2E/DX2         !
 ! D60   D(14,15,16,19)    -0.4035   -0.1263    1.3773 estimate D2E/DX2         !
 ! D61   D(18,15,16,17)    -0.5223    0.0027    0.8132 estimate D2E/DX2         !
 ! D62   D(18,15,16,19)  -179.9484 -179.9806 -179.494  estimate D2E/DX2         !
 ! D63   D(14,15,18,20)     0.5215    0.1848   -1.3207 estimate D2E/DX2         !
 ! D64   D(14,15,18,58)  -179.266  -179.8524  178.3373 estimate D2E/DX2         !
 ! D65   D(16,15,18,20)  -179.9279 -179.9624  179.5513 estimate D2E/DX2         !
 ! D66   D(16,15,18,58)     0.2846    0.0003   -0.7907 estimate D2E/DX2         !
 ! D67   D(15,16,17,29)  -179.617   179.998   179.6371 estimate D2E/DX2         !
 ! D68   D(15,16,17,57)     0.3206   -0.0077   -0.1502 estimate D2E/DX2         !
 ! D69   D(19,16,17,29)    -0.1999   -0.0189   -0.0534 estimate D2E/DX2         !
 ! D70   D(19,16,17,57)   179.7378  179.9755 -179.8408 estimate D2E/DX2         !
 ! D71   D(15,16,19,11)   -47.978   -64.5372  -76.5178 estimate D2E/DX2         !
 ! D72   D(17,16,19,11)   132.6036  115.4798  103.1717 estimate D2E/DX2         !
 ! D73   D(16,17,57,58)     0.1192    0.0098   -0.5324 estimate D2E/DX2         !
 ! D74   D(16,17,57,60)  -179.9101 -179.988   179.6298 estimate D2E/DX2         !
 ! D75   D(29,17,57,58)  -179.9428 -179.9959  179.6812 estimate D2E/DX2         !
 ! D76   D(29,17,57,60)     0.0279    0.0063   -0.1566 estimate D2E/DX2         !
 ! D77   D(15,18,20,24)   -42.6438  -39.6752   72.2844 estimate D2E/DX2         !
 ! D78   D(15,18,20,61)   -14.9528    2.2233   79.8547 estimate D2E/DX2         !
 ! D79   D(58,18,20,24)   137.1396  140.3632 -107.37   estimate D2E/DX2         !
 ! D80   D(58,18,20,61)   164.8306 -177.7383  -99.7997 estimate D2E/DX2         !
 ! D81   D(15,18,58,57)     0.158     0.0017    0.1052 estimate D2E/DX2         !
 ! D82   D(15,18,58,59)   179.9433  179.9964 -179.6257 estimate D2E/DX2         !
 ! D83   D(20,18,58,57)  -179.6241  179.9635  179.7607 estimate D2E/DX2         !
 ! D84   D(20,18,58,59)     0.1612   -0.0418    0.0298 estimate D2E/DX2         !
 ! D85   D(18,20,24,22)    93.5817  118.348   -46.9348 estimate D2E/DX2         !
 ! D86   D(1,21,27,22)    172.0326  173.7347  176.964  estimate D2E/DX2         !
 ! D87   D(1,21,27,28)     -5.9337   -6.4186   -2.0847 estimate D2E/DX2         !
 ! D88   D(54,21,27,22)    -3.6043   -2.3232   -0.7414 estimate D2E/DX2         !
 ! D89   D(54,21,27,28)   178.4294  177.5235 -179.79   estimate D2E/DX2         !
 ! D90   D(1,21,54,52)   -167.6491 -170.7064 -172.9049 estimate D2E/DX2         !
 ! D91   D(1,21,54,55)     11.8315    9.0522    6.903  estimate D2E/DX2         !
 ! D92   D(27,21,54,52)     7.7573    5.3464    4.8541 estimate D2E/DX2         !
 ! D93   D(27,21,54,55)  -172.7622 -174.895  -175.338  estimate D2E/DX2         !
 ! D94   D(24,22,23,52)  -178.8067 -178.8661 -178.9497 estimate D2E/DX2         !
 ! D95   D(24,22,23,53)     1.7633    1.5972    1.8437 estimate D2E/DX2         !
 ! D96   D(27,22,23,52)     3.6253    2.5283    2.6426 estimate D2E/DX2         !
 ! D97   D(27,22,23,53)  -175.8047 -177.0084 -176.5639 estimate D2E/DX2         !
 ! D98   D(23,22,24,20)  -126.3059 -167.1236 -114.2662 estimate D2E/DX2         !
 ! D99   D(27,22,24,20)    51.2599   11.4793   64.1416 estimate D2E/DX2         !
 ! D100  D(23,22,27,21)    -1.9323   -1.5128   -2.9271 estimate D2E/DX2         !
 ! D101  D(23,22,27,28)   175.9399  178.6454  176.0741 estimate D2E/DX2         !
 ! D102  D(24,22,27,21)  -179.5402  179.8569  178.6415 estimate D2E/DX2         !
 ! D103  D(24,22,27,28)    -1.668     0.0151   -2.3573 estimate D2E/DX2         !
 ! D104  D(22,23,52,48)   179.6289 -179.5503 -179.0167 estimate D2E/DX2         !
 ! D105  D(22,23,52,54)     0.0442    0.1582    1.0323 estimate D2E/DX2         !
 ! D106  D(53,23,52,48)    -0.9398   -0.0113    0.1935 estimate D2E/DX2         !
 ! D107  D(53,23,52,54)   179.4755  179.6972 -179.7574 estimate D2E/DX2         !
 ! D108  D(43,31,39,34)  -170.0409 -171.0588 -171.1073 estimate D2E/DX2         !
 ! D109  D(43,31,39,38)     8.2815    7.9929    8.0804 estimate D2E/DX2         !
 ! D110  D(62,31,39,34)  -177.8307 -178.5638   10.4416 estimate D2E/DX2         !
 ! D111  D(62,31,39,38)     0.4918    0.4878 -170.3707 estimate D2E/DX2         !
 ! D112  D(63,31,39,34)     9.0137    8.319  -178.7139 estimate D2E/DX2         !
 ! D113  D(63,31,39,38)  -172.6638 -172.6293    0.4738 estimate D2E/DX2         !
 ! D114  D(39,31,43,44)    -8.3453   -8.0368   -8.1047 estimate D2E/DX2         !
 ! D115  D(39,31,43,48)   170.4232  171.0122  171.1092 estimate D2E/DX2         !
 ! D116  D(62,31,43,44)    -0.549    -0.532   170.3468 estimate D2E/DX2         !
 ! D117  D(62,31,43,48)   178.2195  178.517   -10.4393 estimate D2E/DX2         !
 ! D118  D(63,31,43,44)   172.5993  172.5853   -0.4984 estimate D2E/DX2         !
 ! D119  D(63,31,43,48)    -8.6322   -8.3657  178.7155 estimate D2E/DX2         !
 ! D120  D(39,31,62,13)   -97.8534   86.7475   89.3766 estimate D2E/DX2         !
 ! D121  D(43,31,62,13)    89.6126  -86.0571  -89.1292 estimate D2E/DX2         !
 ! D122  D(44,32,38,37)   177.7854  178.0761  178.3863 estimate D2E/DX2         !
 ! D123  D(44,32,38,39)    -2.6993   -2.5547   -2.5202 estimate D2E/DX2         !
 ! D124  D(62,32,38,37)    -1.1199   -0.9271 -175.4289 estimate D2E/DX2         !
 ! D125  D(62,32,38,39)   178.3954  178.4421    3.6647 estimate D2E/DX2         !
 ! D126  D(63,32,38,37)  -176.4895 -176.3626   -0.8107 estimate D2E/DX2         !
 ! D127  D(63,32,38,39)     3.0258    3.0066  178.2828 estimate D2E/DX2         !
 ! D128  D(38,32,44,43)     2.6404    2.5098    2.496  estimate D2E/DX2         !
 ! D129  D(38,32,44,45)  -177.9418 -178.1172 -178.4259 estimate D2E/DX2         !
 ! D130  D(62,32,44,43)  -178.4532 -178.4869   -3.689  estimate D2E/DX2         !
 ! D131  D(62,32,44,45)     0.9647    0.8861  175.3891 estimate D2E/DX2         !
 ! D132  D(63,32,44,43)    -3.0827   -3.052  -178.3071 estimate D2E/DX2         !
 ! D133  D(63,32,44,45)   176.3351  176.3211    0.771  estimate D2E/DX2         !
 ! D134  D(9,33,34,35)     45.127    51.0888   50.1007 estimate D2E/DX2         !
 ! D135  D(9,33,34,39)   -137.9274 -131.0271 -132.6936 estimate D2E/DX2         !
 ! D136  D(10,33,34,35)  -133.5423 -129.5527 -129.7941 estimate D2E/DX2         !
 ! D137  D(10,33,34,39)    43.4034   48.3314   47.4115 estimate D2E/DX2         !
 ! D138  D(33,34,35,36)   176.1938  176.8502  176.1599 estimate D2E/DX2         !
 ! D139  D(33,34,35,40)    -1.3276   -0.8529   -1.356  estimate D2E/DX2         !
 ! D140  D(39,34,35,36)    -0.8073   -1.0475   -1.0659 estimate D2E/DX2         !
 ! D141  D(39,34,35,40)  -178.3286 -178.7507 -178.5818 estimate D2E/DX2         !
 ! D142  D(33,34,39,31)     5.5752    5.0696    6.0886 estimate D2E/DX2         !
 ! D143  D(33,34,39,38)  -172.7318 -173.9738 -173.0931 estimate D2E/DX2         !
 ! D144  D(35,34,39,31)  -177.4343 -177.0086 -176.6552 estimate D2E/DX2         !
 ! D145  D(35,34,39,38)     4.2587    3.9479    4.1631 estimate D2E/DX2         !
 ! D146  D(34,35,36,37)    -2.268    -1.7539   -1.9335 estimate D2E/DX2         !
 ! D147  D(34,35,36,41)   179.8367 -179.946   179.9868 estimate D2E/DX2         !
 ! D148  D(40,35,36,37)   175.2689  175.9639  175.5989 estimate D2E/DX2         !
 ! D149  D(40,35,36,41)    -2.6264   -2.2281   -2.4808 estimate D2E/DX2         !
 ! D150  D(35,36,37,38)     1.7639    1.5673    1.7411 estimate D2E/DX2         !
 ! D151  D(35,36,37,42)  -177.6207 -177.994  -177.8964 estimate D2E/DX2         !
 ! D152  D(41,36,37,38)   179.6327  179.737   179.7978 estimate D2E/DX2         !
 ! D153  D(41,36,37,42)     0.2481    0.1757    0.1604 estimate D2E/DX2         !
 ! D154  D(36,37,38,32)  -178.7528 -179.2627 -179.5119 estimate D2E/DX2         !
 ! D155  D(36,37,38,39)     1.7311    1.3667    1.3922 estimate D2E/DX2         !
 ! D156  D(42,37,38,32)     0.6454    0.3067    0.1322 estimate D2E/DX2         !
 ! D157  D(42,37,38,39)  -178.8707 -179.0639 -178.9637 estimate D2E/DX2         !
 ! D158  D(32,38,39,31)    -2.6276   -2.5673   -2.6519 estimate D2E/DX2         !
 ! D159  D(32,38,39,34)   175.749   176.5107  176.5569 estimate D2E/DX2         !
 ! D160  D(37,38,39,31)   176.9014  176.824   176.4737 estimate D2E/DX2         !
 ! D161  D(37,38,39,34)    -4.722    -4.0979   -4.3176 estimate D2E/DX2         !
 ! D162  D(31,43,44,32)     2.74      2.6566    2.6995 estimate D2E/DX2         !
 ! D163  D(31,43,44,45)  -176.6943 -176.7383 -176.4112 estimate D2E/DX2         !
 ! D164  D(48,43,44,32)  -176.0676 -176.4191 -176.5346 estimate D2E/DX2         !
 ! D165  D(48,43,44,45)     4.4981    4.186     4.3546 estimate D2E/DX2         !
 ! D166  D(31,43,48,47)   176.9667  176.9457  176.5563 estimate D2E/DX2         !
 ! D167  D(31,43,48,52)    -5.7066   -5.2827   -6.1537 estimate D2E/DX2         !
 ! D168  D(44,43,48,47)    -4.2746   -4.0136   -4.2356 estimate D2E/DX2         !
 ! D169  D(44,43,48,52)   173.0521  173.758   173.0544 estimate D2E/DX2         !
 ! D170  D(32,44,45,46)   179.0968  179.2214  179.5474 estimate D2E/DX2         !
 ! D171  D(32,44,45,49)    -0.4541   -0.3466   -0.1163 estimate D2E/DX2         !
 ! D172  D(43,44,45,46)    -1.4852   -1.4041   -1.3722 estimate D2E/DX2         !
 ! D173  D(43,44,45,49)   178.9639  179.0279  178.9641 estimate D2E/DX2         !
 ! D174  D(44,45,46,47)    -1.7897   -1.6024   -1.7832 estimate D2E/DX2         !
 ! D175  D(44,45,46,50)  -179.8107 -179.7387 -179.8274 estimate D2E/DX2         !
 ! D176  D(49,45,46,47)   177.7516  177.9574  177.8742 estimate D2E/DX2         !
 ! D177  D(49,45,46,50)    -0.2693   -0.1789   -0.1699 estimate D2E/DX2         !
 ! D178  D(45,46,47,48)     2.0395    1.8123    1.9391 estimate D2E/DX2         !
 ! D179  D(45,46,47,51)  -175.2772 -175.853  -175.6076 estimate D2E/DX2         !
 ! D180  D(50,46,47,48)  -179.9165  179.9713 -179.9938 estimate D2E/DX2         !
 ! D181  D(50,46,47,51)     2.7669    2.306     2.4595 estimate D2E/DX2         !
 ! D182  D(46,47,48,43)     1.052     1.0412    1.1177 estimate D2E/DX2         !
 ! D183  D(46,47,48,52)  -176.2731 -176.7106 -176.1422 estimate D2E/DX2         !
 ! D184  D(51,47,48,43)   178.3451  178.691   178.648  estimate D2E/DX2         !
 ! D185  D(51,47,48,52)     1.02      0.9392    1.388  estimate D2E/DX2         !
 ! D186  D(43,48,52,23)   135.4558  131.8205  132.61   estimate D2E/DX2         !
 ! D187  D(43,48,52,54)   -44.973   -47.8786  -47.4405 estimate D2E/DX2         !
 ! D188  D(47,48,52,23)   -47.263   -50.4459  -50.15   estimate D2E/DX2         !
 ! D189  D(47,48,52,54)   132.3082  129.855   129.7995 estimate D2E/DX2         !
 ! D190  D(23,52,54,21)    -6.0141   -4.2914   -5.0121 estimate D2E/DX2         !
 ! D191  D(23,52,54,55)   174.5176  175.9547  175.1833 estimate D2E/DX2         !
 ! D192  D(48,52,54,21)   174.3899  175.4238  175.0354 estimate D2E/DX2         !
 ! D193  D(48,52,54,55)    -5.0784   -4.3301   -4.7691 estimate D2E/DX2         !
 ! D194  D(17,57,58,18)    -0.3599   -0.0068    0.5552 estimate D2E/DX2         !
 ! D195  D(17,57,58,59)   179.8538  179.9986 -179.7151 estimate D2E/DX2         !
 ! D196  D(60,57,58,18)   179.6694  179.991  -179.607  estimate D2E/DX2         !
 ! D197  D(60,57,58,59)    -0.117    -0.0036    0.1226 estimate D2E/DX2         !
 --------------------------------------------------------------------------------
 Trust Radius=3.00D-01 FncErr=1.00D-07 GrdErr=1.00D-06 EigMax=2.50D+02 EigMin=1.00D-04
 Number of steps in this run=    378 maximum allowed number of steps=    378.
 Search for a saddle point of order  1.
 GradGradGradGradGradGradGradGradGradGradGradGradGradGradGradGradGradGrad

 Stoichiometry    C34H21BrMnN3O3
 Framework group  C1[X(C34H21BrMnN3O3)]
 Deg. of freedom   183
 Full point group                 C1      NOp   1
 Largest Abelian subgroup         C1      NOp   1
 Largest concise Abelian subgroup C1      NOp   1
                         Standard orientation:                         
 ---------------------------------------------------------------------
 Center     Atomic      Atomic             Coordinates (Angstroms)
 Number     Number       Type             X           Y           Z
 ---------------------------------------------------------------------
      1         25           0       -1.491200   -1.891195   -0.126134
      2          6           0       -2.391504   -2.747886   -1.473557
      3          8           0       -2.868133   -3.333981   -2.332858
      4          6           0       -2.380574   -2.878335    1.140303
      5          8           0       -2.823353   -3.546419    1.957456
      6          6           0       -0.282329   -3.182298   -0.186216
      7          7           0       -0.571686   -0.987862    1.466085
      8          6           0       -0.761112    0.347299    3.448861
      9          6           0        0.619242    0.536133    3.484710
     10          6           0        0.756772   -0.891099    1.578641
     11          1           0       -1.413552    0.801810    4.199509
     12          1           0        1.073727    1.167631    4.252737
     13          7           0       -2.003794    0.786079    0.045985
     14          6           0       -2.168591    1.931419    0.112176
     15          6           0       -2.422815    3.351383    0.179328
     16          6           0       -1.412605    4.268432   -0.122210
     17          6           0       -1.684998    5.638023   -0.071047
     18          6           0       -3.695242    3.801609    0.540647
     19          1           0       -0.427639    3.904597   -0.402611
     20          1           0       -4.468494    3.068549    0.773063
     21          7           0       -0.560853   -0.784110   -1.565299
     22          6           0       -0.756334    0.869303   -3.289083
     23          6           0        0.625532    1.044059   -3.317396
     24          1           0       -1.411888    1.458213   -3.931736
     25          6           0       -1.317330   -0.398362    2.420755
     26          1           0       -2.402086   -0.511142    2.336760
     27          6           0       -1.310242   -0.033581   -2.392482
     28          1           0       -2.394013   -0.144859   -2.300622
     29          1           0       -0.904919    6.360664   -0.310710
     30          8           0        0.455639   -4.068676   -0.214657
     31          6           0        2.955796    0.390142    0.037195
     32          6           0        5.737281    0.240711    0.029418
     33          6           0        1.416705   -0.098393    2.527269
     34          6           0        2.904070    0.019216    2.507256
     35          6           0        3.625422   -0.106412    3.667875
     36          6           0        5.054545   -0.078588    3.668973
     37          6           0        5.750094    0.029073    2.498964
     38          6           0        5.054122    0.154102    1.250511
     39          6           0        3.616690    0.201994    1.254914
     40          1           0        3.100036   -0.272009    4.613240
     41          1           0        5.586134   -0.179807    4.618825
     42          1           0        6.844902    0.011950    2.491292
     43          6           0        3.620934    0.363903   -1.193799
     44          6           0        5.058093    0.316975   -1.194025
     45          6           0        5.757141    0.361956   -2.447353
     46          6           0        5.064272    0.417536   -3.621580
     47          6           0        3.635071    0.393568   -3.626732
     48          6           0        2.910965    0.356060   -2.460084
     49          1           0        6.852042    0.343256   -2.441262
     50          1           0        5.598721    0.448636   -4.575850
     51          1           0        3.113857    0.360712   -4.587221
     52          6           0        1.423935    0.248234   -2.493627
     53          1           0        1.079119    1.798829   -3.967164
     54          6           0        0.764707   -0.687202   -1.683217
     55          1           0        1.356685   -1.386511   -1.095096
     56          1           0        1.350366   -1.474709    0.873871
     57          6           0       -2.950643    6.089062    0.283880
     58          6           0       -3.952463    5.174193    0.592646
     59          1           0       -4.940150    5.533410    0.871979
     60          1           0       -3.159591    7.166442    0.321042
     61         35           0       -4.434606   -1.146132   -0.099423
     62          1           0        6.832912    0.230827    0.029454
     63          1           0        1.878553    0.548495    0.045242
 ---------------------------------------------------------------------
 Rotational constants (GHZ):           0.0906877           0.0566561           0.0516659
 General basis read from cards:  (5D, 7F)
 There are   802 symmetry adapted cartesian basis functions of A   symmetry.
 There are   751 symmetry adapted basis functions of A   symmetry.
   751 basis functions,  1339 primitive gaussians,   802 cartesian basis functions
   165 alpha electrons      165 beta electrons
       nuclear repulsion energy      6084.2059595481 Hartrees.
 NAtoms=   63 NActive=   63 NUniq=   63 SFac= 1.00D+00 NAtFMM=   60 NAOKFM=T Big=T
 Integral buffers will be    131072 words long.
 Raffenetti 2 integral format.
 Two-electron integral symmetry is turned on.
 Nuclear repulsion after empirical dispersion term =     6084.1403481475 Hartrees.
 ------------------------------------------------------------------------------
 Polarizable Continuum Model (PCM)
 =================================
 Model                : PCM.
 Atomic radii         : UFF (Universal Force Field).
 Polarization charges : Total charges.
 Charge compensation  : None.
 Solution method      : On-the-fly selection.
 Cavity type          : Scaled VdW (van der Waals Surface) (Alpha=1.100).
 Cavity algorithm     : GePol (No added spheres)
                        Default sphere list used, NSphG=   63.
                        Lebedev-Laikov grids with approx.  5.0 points / Ang**2.
                        Smoothing algorithm: York/Karplus (Gamma=1.0000).
                        Polarization charges: spherical gaussians, with
                                              point-specific exponents (IZeta= 3).
                        Self-potential: point-specific (ISelfS= 7).
                        Self-field    : sphere-specific E.n sum rule (ISelfD= 2).
 1st derivatives      : Analytical E(r).r(x)/FMM algorithm (CHGder, D1EAlg=3).
                        Cavity 1st derivative terms included.
 Solvent              : TetraHydroFuran, Eps=   7.425700 Eps(inf)=   1.974025
 ------------------------------------------------------------------------------
 One-electron integrals computed using PRISM.
 PrsmSu:  requested number of processors reduced to:  11 ShMem   1 Linda.
 NBasis=   751 RedAO= T EigKep=  2.30D-04  NBF=   751
 NBsUse=   751 1.00D-06 EigRej= -1.00D+00 NBFU=   751
 ExpMin= 3.93D-02 ExpMax= 2.77D+05 ExpMxC= 1.70D+04 IAcc=3 IRadAn=         5 AccDes= 0.00D+00
 Harris functional with IExCor= 4639 and IRadAn=       5 diagonalized for initial guess.
 HarFok:  IExCor= 4639 AccDes= 0.00D+00 IRadAn=         5 IDoV= 1 UseB2=F ITyADJ=14
 ICtDFT=  3500011 ScaDFX=  1.000000  1.000000  1.000000  1.000000
 FoFCou: FMM=F IPFlag=           0 FMFlag=      100000 FMFlg1=        2001
         NFxFlg=           0 DoJE=T BraDBF=F KetDBF=T FulRan=T
         wScrn=  0.000000 ICntrl=       500 IOpCl=  0 I1Cent=   200000004 NGrid=           0
         NMat0=    1 NMatS0=      1 NMatT0=    0 NMatD0=    1 NMtDS0=    0 NMtDT0=    0
 Petite list used in FoFCou.
 Requested convergence on RMS density matrix=1.00D-08 within 128 cycles.
 Requested convergence on MAX density matrix=1.00D-06.
 Requested convergence on             energy=1.00D-06.
 No special actions if energy rises.
 CoulSu:  requested number of processors reduced to:  10 ShMem   1 Linda.
 Inv3:  Mode=1 IEnd=    67431243.
 Iteration    1 A*A^-1 deviation from unit magnitude is 3.33D-15 for    609.
 Iteration    1 A*A^-1 deviation from orthogonality  is 2.66D-15 for   3005    402.
 Iteration    1 A^-1*A deviation from unit magnitude is 3.33D-15 for    609.
 Iteration    1 A^-1*A deviation from orthogonality  is 2.89D-15 for   2999    449.
 CoulSu:  requested number of processors reduced to:  10 ShMem   1 Linda.
 CoulSu:  requested number of processors reduced to:  10 ShMem   1 Linda.
 Error on total polarization charges =  0.01935
 SCF Done:  E(RwB97XD) =  -5421.43158518     A.U. after   20 cycles
            NFock= 20  Conv=0.60D-08     -V/T= 2.0041

 **********************************************************************

            Population analysis using the SCF density.

 **********************************************************************

 Orbital symmetries:
       Occupied  (A) (A) (A) (A) (A) (A) (A) (A) (A) (A) (A) (A)
                 (A) (A) (A) (A) (A) (A) (A) (A) (A) (A) (A) (A)
                 (A) (A) (A) (A) (A) (A) (A) (A) (A) (A) (A) (A)
                 (A) (A) (A) (A) (A) (A) (A) (A) (A) (A) (A) (A)
                 (A) (A) (A) (A) (A) (A) (A) (A) (A) (A) (A) (A)
                 (A) (A) (A) (A) (A) (A) (A) (A) (A) (A) (A) (A)
                 (A) (A) (A) (A) (A) (A) (A) (A) (A) (A) (A) (A)
                 (A) (A) (A) (A) (A) (A) (A) (A) (A) (A) (A) (A)
                 (A) (A) (A) (A) (A) (A) (A) (A) (A) (A) (A) (A)
                 (A) (A) (A) (A) (A) (A) (A) (A) (A) (A) (A) (A)
                 (A) (A) (A) (A) (A) (A) (A) (A) (A) (A) (A) (A)
                 (A) (A) (A) (A) (A) (A) (A) (A) (A) (A) (A) (A)
                 (A) (A) (A) (A) (A) (A) (A) (A) (A) (A) (A) (A)
                 (A) (A) (A) (A) (A) (A) (A) (A) (A)
       Virtual   (A) (A) (A) (A) (A) (A) (A) (A) (A) (A) (A) (A)
                 (A) (A) (A) (A) (A) (A) (A) (A) (A) (A) (A) (A)
                 (A) (A) (A) (A) (A) (A) (A) (A) (A) (A) (A) (A)
                 (A) (A) (A) (A) (A) (A) (A) (A) (A) (A) (A) (A)
                 (A) (A) (A) (A) (A) (A) (A) (A) (A) (A) (A) (A)
                 (A) (A) (A) (A) (A) (A) (A) (A) (A) (A) (A) (A)
                 (A) (A) (A) (A) (A) (A) (A) (A) (A) (A) (A) (A)
                 (A) (A) (A) (A) (A) (A) (A) (A) (A) (A) (A) (A)
                 (A) (A) (A) (A) (A) (A) (A) (A) (A) (A) (A) (A)
                 (A) (A) (A) (A) (A) (A) (A) (A) (A) (A) (A) (A)
                 (A) (A) (A) (A) (A) (A) (A) (A) (A) (A) (A) (A)
                 (A) (A) (A) (A) (A) (A) (A) (A) (A) (A) (A) (A)
                 (A) (A) (A) (A) (A) (A) (A) (A) (A) (A) (A) (A)
                 (A) (A) (A) (A) (A) (A) (A) (A) (A) (A) (A) (A)
                 (A) (A) (A) (A) (A) (A) (A) (A) (A) (A) (A) (A)
                 (A) (A) (A) (A) (A) (A) (A) (A) (A) (A) (A) (A)
                 (A) (A) (A) (A) (A) (A) (A) (A) (A) (A) (A) (A)
                 (A) (A) (A) (A) (A) (A) (A) (A) (A) (A) (A) (A)
                 (A) (A) (A) (A) (A) (A) (A) (A) (A) (A) (A) (A)
                 (A) (A) (A) (A) (A) (A) (A) (A) (A) (A) (A) (A)
                 (A) (A) (A) (A) (A) (A) (A) (A) (A) (A) (A) (A)
                 (A) (A) (A) (A) (A) (A) (A) (A) (A) (A) (A) (A)
                 (A) (A) (A) (A) (A) (A) (A) (A) (A) (A) (A) (A)
                 (A) (A) (A) (A) (A) (A) (A) (A) (A) (A) (A) (A)
                 (A) (A) (A) (A) (A) (A) (A) (A) (A) (A) (A) (A)
                 (A) (A) (A) (A) (A) (A) (A) (A) (A) (A) (A) (A)
                 (A) (A) (A) (A) (A) (A) (A) (A) (A) (A) (A) (A)
                 (A) (A) (A) (A) (A) (A) (A) (A) (A) (A) (A) (A)
                 (A) (A) (A) (A) (A) (A) (A) (A) (A) (A) (A) (A)
                 (A) (A) (A) (A) (A) (A) (A) (A) (A) (A) (A) (A)
                 (A) (A) (A) (A) (A) (A) (A) (A) (A) (A) (A) (A)
                 (A) (A) (A) (A) (A) (A) (A) (A) (A) (A) (A) (A)
                 (A) (A) (A) (A) (A) (A) (A) (A) (A) (A) (A) (A)
                 (A) (A) (A) (A) (A) (A) (A) (A) (A) (A) (A) (A)
                 (A) (A) (A) (A) (A) (A) (A) (A) (A) (A) (A) (A)
                 (A) (A) (A) (A) (A) (A) (A) (A) (A) (A) (A) (A)
                 (A) (A) (A) (A) (A) (A) (A) (A) (A) (A) (A) (A)
                 (A) (A) (A) (A) (A) (A) (A) (A) (A) (A) (A) (A)
                 (A) (A) (A) (A) (A) (A) (A) (A) (A) (A) (A) (A)
                 (A) (A) (A) (A) (A) (A) (A) (A) (A) (A) (A) (A)
                 (A) (A) (A) (A) (A) (A) (A) (A) (A) (A) (A) (A)
                 (A) (A) (A) (A) (A) (A) (A) (A) (A) (A) (A) (A)
                 (A) (A) (A) (A) (A) (A) (A) (A) (A) (A) (A) (A)
                 (A) (A) (A) (A) (A) (A) (A) (A) (A) (A) (A) (A)
                 (A) (A) (A) (A) (A) (A) (A) (A) (A) (A) (A) (A)
                 (A) (A) (A) (A) (A) (A) (A) (A) (A) (A) (A) (A)
                 (A) (A) (A) (A) (A) (A) (A) (A) (A) (A) (A) (A)
                 (A) (A) (A) (A) (A) (A) (A) (A) (A) (A) (A) (A)
                 (A) (A) (A) (A) (A) (A) (A) (A) (A) (A)
 The electronic state is 1-A.
 Alpha  occ. eigenvalues -- -482.96940-235.68917 -62.54961 -56.35555 -56.35505
 Alpha  occ. eigenvalues --  -56.35490 -27.45780 -23.51579 -23.51486 -23.51229
 Alpha  occ. eigenvalues --  -19.33289 -19.33098 -19.32786 -14.50091 -14.50014
 Alpha  occ. eigenvalues --  -14.46142 -10.41022 -10.40867 -10.40571 -10.36547
 Alpha  occ. eigenvalues --  -10.36535 -10.35993 -10.35912 -10.35809 -10.35479
 Alpha  occ. eigenvalues --  -10.34304 -10.34253 -10.34162 -10.34143 -10.33490
 Alpha  occ. eigenvalues --  -10.33482 -10.33283 -10.33207 -10.33202 -10.33160
 Alpha  occ. eigenvalues --  -10.32937 -10.32869 -10.32797 -10.32795 -10.32504
 Alpha  occ. eigenvalues --  -10.32307 -10.32232 -10.32199 -10.32196 -10.32020
 Alpha  occ. eigenvalues --  -10.31939 -10.31918 -10.31915 -10.31776 -10.31776
 Alpha  occ. eigenvalues --   -8.71715  -6.53518  -6.53349  -6.53296  -3.25231
 Alpha  occ. eigenvalues --   -2.64007  -2.63973  -2.63931  -2.63796  -2.63793
 Alpha  occ. eigenvalues --   -2.10923  -2.10504  -2.10056  -1.22249  -1.22083
 Alpha  occ. eigenvalues --   -1.21463  -1.08111  -1.07734  -1.01791  -1.00008
 Alpha  occ. eigenvalues --   -0.97844  -0.97303  -0.94105  -0.92900  -0.91135
 Alpha  occ. eigenvalues --   -0.90481  -0.89371  -0.88192  -0.87093  -0.86189
 Alpha  occ. eigenvalues --   -0.84978  -0.84714  -0.81734  -0.76713  -0.76371
 Alpha  occ. eigenvalues --   -0.75435  -0.75052  -0.74999  -0.74468  -0.74080
 Alpha  occ. eigenvalues --   -0.72135  -0.72013  -0.70067  -0.68716  -0.67542
 Alpha  occ. eigenvalues --   -0.65645  -0.64567  -0.64445  -0.64298  -0.63905
 Alpha  occ. eigenvalues --   -0.63831  -0.62386  -0.61731  -0.60552  -0.59678
 Alpha  occ. eigenvalues --   -0.59122  -0.57653  -0.57383  -0.57215  -0.57094
 Alpha  occ. eigenvalues --   -0.56235  -0.56100  -0.55935  -0.55614  -0.55241
 Alpha  occ. eigenvalues --   -0.55046  -0.54734  -0.54486  -0.54303  -0.54141
 Alpha  occ. eigenvalues --   -0.53412  -0.53084  -0.53019  -0.52766  -0.52269
 Alpha  occ. eigenvalues --   -0.52137  -0.51963  -0.50998  -0.50991  -0.50834
 Alpha  occ. eigenvalues --   -0.50369  -0.50075  -0.49870  -0.49197  -0.48516
 Alpha  occ. eigenvalues --   -0.48022  -0.47765  -0.47206  -0.47042  -0.45846
 Alpha  occ. eigenvalues --   -0.45766  -0.44933  -0.44651  -0.43692  -0.43451
 Alpha  occ. eigenvalues --   -0.42940  -0.41821  -0.41694  -0.41055  -0.40453
 Alpha  occ. eigenvalues --   -0.40010  -0.39252  -0.37471  -0.36102  -0.35451
 Alpha  occ. eigenvalues --   -0.35232  -0.33914  -0.33181  -0.33075  -0.32228
 Alpha  occ. eigenvalues --   -0.30824  -0.30268  -0.29926  -0.28481  -0.27834
 Alpha virt. eigenvalues --   -0.02904   0.00132   0.00499   0.00733   0.02088
 Alpha virt. eigenvalues --    0.02428   0.02502   0.03433   0.03886   0.05791
 Alpha virt. eigenvalues --    0.06320   0.06950   0.07831   0.07979   0.09329
 Alpha virt. eigenvalues --    0.09391   0.09625   0.10037   0.11613   0.11854
 Alpha virt. eigenvalues --    0.12208   0.12517   0.13434   0.13917   0.14440
 Alpha virt. eigenvalues --    0.14447   0.14812   0.15280   0.15434   0.15998
 Alpha virt. eigenvalues --    0.16285   0.16651   0.17313   0.18027   0.18834
 Alpha virt. eigenvalues --    0.19195   0.19689   0.19805   0.20567   0.20905
 Alpha virt. eigenvalues --    0.20998   0.21830   0.22208   0.22506   0.22906
 Alpha virt. eigenvalues --    0.23359   0.23589   0.23596   0.24772   0.25501
 Alpha virt. eigenvalues --    0.26584   0.26831   0.27621   0.27981   0.28972
 Alpha virt. eigenvalues --    0.29008   0.29934   0.30089   0.30728   0.30943
 Alpha virt. eigenvalues --    0.31042   0.31719   0.32514   0.32572   0.32835
 Alpha virt. eigenvalues --    0.33404   0.33745   0.33872   0.34039   0.34209
 Alpha virt. eigenvalues --    0.34332   0.35019   0.35347   0.35974   0.36152
 Alpha virt. eigenvalues --    0.36367   0.36743   0.36823   0.37820   0.37893
 Alpha virt. eigenvalues --    0.38356   0.38511   0.38991   0.39497   0.40046
 Alpha virt. eigenvalues --    0.40530   0.40796   0.41937   0.41989   0.42225
 Alpha virt. eigenvalues --    0.42320   0.43028   0.43378   0.43944   0.44601
 Alpha virt. eigenvalues --    0.44848   0.46060   0.46321   0.47108   0.47550
 Alpha virt. eigenvalues --    0.47821   0.48127   0.48607   0.48835   0.49431
 Alpha virt. eigenvalues --    0.50557   0.50827   0.50880   0.51263   0.51803
 Alpha virt. eigenvalues --    0.52309   0.52579   0.52852   0.53139   0.53498
 Alpha virt. eigenvalues --    0.53597   0.53683   0.54496   0.54578   0.55051
 Alpha virt. eigenvalues --    0.55361   0.55785   0.56173   0.56292   0.56497
 Alpha virt. eigenvalues --    0.56925   0.57425   0.58114   0.58538   0.58843
 Alpha virt. eigenvalues --    0.59584   0.59725   0.60604   0.60891   0.61061
 Alpha virt. eigenvalues --    0.61200   0.61487   0.61650   0.62239   0.62516
 Alpha virt. eigenvalues --    0.63785   0.64187   0.64237   0.64680   0.65380
 Alpha virt. eigenvalues --    0.65698   0.66443   0.66713   0.67003   0.67069
 Alpha virt. eigenvalues --    0.67408   0.68160   0.68219   0.68674   0.69188
 Alpha virt. eigenvalues --    0.69395   0.70457   0.70597   0.71192   0.71426
 Alpha virt. eigenvalues --    0.71985   0.72016   0.72252   0.72435   0.72748
 Alpha virt. eigenvalues --    0.73189   0.73472   0.73640   0.73736   0.74046
 Alpha virt. eigenvalues --    0.74307   0.74557   0.74983   0.75246   0.75524
 Alpha virt. eigenvalues --    0.75927   0.76051   0.76284   0.76483   0.77120
 Alpha virt. eigenvalues --    0.77305   0.77464   0.77705   0.78392   0.78633
 Alpha virt. eigenvalues --    0.79156   0.79596   0.79743   0.80283   0.80340
 Alpha virt. eigenvalues --    0.80665   0.80918   0.81612   0.81906   0.82128
 Alpha virt. eigenvalues --    0.82722   0.83235   0.83574   0.83761   0.84269
 Alpha virt. eigenvalues --    0.84444   0.84945   0.85507   0.85826   0.85972
 Alpha virt. eigenvalues --    0.86098   0.86632   0.87107   0.87278   0.87717
 Alpha virt. eigenvalues --    0.87914   0.88175   0.88449   0.88570   0.89084
 Alpha virt. eigenvalues --    0.89916   0.90202   0.90755   0.91342   0.91636
 Alpha virt. eigenvalues --    0.91808   0.91929   0.92618   0.92831   0.93618
 Alpha virt. eigenvalues --    0.94207   0.94871   0.95448   0.95939   0.96585
 Alpha virt. eigenvalues --    0.96785   0.97460   0.98169   0.98379   0.98786
 Alpha virt. eigenvalues --    1.00641   1.01638   1.01926   1.02334   1.02893
 Alpha virt. eigenvalues --    1.03498   1.03725   1.04838   1.05831   1.06904
 Alpha virt. eigenvalues --    1.07690   1.08436   1.09639   1.10327   1.11614
 Alpha virt. eigenvalues --    1.12114   1.13193   1.13403   1.14734   1.15297
 Alpha virt. eigenvalues --    1.15837   1.16361   1.16614   1.17211   1.17613
 Alpha virt. eigenvalues --    1.18626   1.19424   1.20191   1.21571   1.22539
 Alpha virt. eigenvalues --    1.22728   1.23496   1.24269   1.25177   1.25362
 Alpha virt. eigenvalues --    1.25981   1.26086   1.27194   1.28336   1.28815
 Alpha virt. eigenvalues --    1.29688   1.29901   1.30056   1.30217   1.30670
 Alpha virt. eigenvalues --    1.30838   1.31070   1.31323   1.32044   1.32403
 Alpha virt. eigenvalues --    1.32886   1.33960   1.34235   1.34637   1.35099
 Alpha virt. eigenvalues --    1.35472   1.35608   1.36286   1.36488   1.36622
 Alpha virt. eigenvalues --    1.36879   1.37613   1.39473   1.39618   1.39847
 Alpha virt. eigenvalues --    1.40339   1.40966   1.41305   1.42372   1.42916
 Alpha virt. eigenvalues --    1.43183   1.44692   1.44897   1.45915   1.46326
 Alpha virt. eigenvalues --    1.48648   1.49280   1.51071   1.51874   1.52940
 Alpha virt. eigenvalues --    1.55508   1.55675   1.56040   1.57673   1.59408
 Alpha virt. eigenvalues --    1.60324   1.60628   1.62949   1.64474   1.64732
 Alpha virt. eigenvalues --    1.66877   1.67212   1.67603   1.67993   1.70010
 Alpha virt. eigenvalues --    1.71206   1.71927   1.72301   1.72759   1.73002
 Alpha virt. eigenvalues --    1.73214   1.73599   1.73996   1.74115   1.74952
 Alpha virt. eigenvalues --    1.75335   1.75975   1.76482   1.77352   1.77631
 Alpha virt. eigenvalues --    1.78139   1.78475   1.78706   1.78865   1.79245
 Alpha virt. eigenvalues --    1.79452   1.79785   1.79896   1.80120   1.80743
 Alpha virt. eigenvalues --    1.81167   1.81320   1.81595   1.81885   1.82066
 Alpha virt. eigenvalues --    1.82368   1.82529   1.82688   1.82827   1.83344
 Alpha virt. eigenvalues --    1.83572   1.84448   1.84702   1.85335   1.85548
 Alpha virt. eigenvalues --    1.85987   1.86311   1.86756   1.87556   1.88420
 Alpha virt. eigenvalues --    1.88885   1.89472   1.89802   1.90447   1.90680
 Alpha virt. eigenvalues --    1.90886   1.91528   1.91823   1.92701   1.93706
 Alpha virt. eigenvalues --    1.94217   1.95596   1.96069   1.96342   1.97683
 Alpha virt. eigenvalues --    1.98061   1.98314   1.98761   1.99667   2.00343
 Alpha virt. eigenvalues --    2.00640   2.01042   2.01846   2.02363   2.02702
 Alpha virt. eigenvalues --    2.03126   2.03591   2.03931   2.04512   2.05001
 Alpha virt. eigenvalues --    2.05734   2.05923   2.06569   2.07131   2.07683
 Alpha virt. eigenvalues --    2.09004   2.09640   2.09798   2.10657   2.10859
 Alpha virt. eigenvalues --    2.11114   2.12006   2.13024   2.13985   2.15535
 Alpha virt. eigenvalues --    2.15669   2.16792   2.17038   2.17203   2.17699
 Alpha virt. eigenvalues --    2.18108   2.18944   2.20168   2.20573   2.20861
 Alpha virt. eigenvalues --    2.20942   2.21616   2.21966   2.22383   2.22956
 Alpha virt. eigenvalues --    2.24104   2.24501   2.24808   2.26044   2.26416
 Alpha virt. eigenvalues --    2.26961   2.29563   2.30973   2.31340   2.31973
 Alpha virt. eigenvalues --    2.32262   2.32835   2.33542   2.34282   2.35009
 Alpha virt. eigenvalues --    2.35276   2.36951   2.37335   2.37601   2.37772
 Alpha virt. eigenvalues --    2.38030   2.38604   2.39026   2.39576   2.39648
 Alpha virt. eigenvalues --    2.41310   2.41864   2.42570   2.42800   2.43480
 Alpha virt. eigenvalues --    2.44046   2.45231   2.45855   2.46558   2.46978
 Alpha virt. eigenvalues --    2.48093   2.48694   2.50267   2.50705   2.50952
 Alpha virt. eigenvalues --    2.54159   2.55979   2.57087   2.59388   2.60146
 Alpha virt. eigenvalues --    2.60880   2.61870   2.62332   2.64049   2.64793
 Alpha virt. eigenvalues --    2.66058   2.66992   2.67219   2.67623   2.67745
 Alpha virt. eigenvalues --    2.68283   2.68756   2.70865   2.70965   2.71089
 Alpha virt. eigenvalues --    2.71205   2.71265   2.71735   2.71843   2.72102
 Alpha virt. eigenvalues --    2.72163   2.72922   2.73211   2.74372   2.74867
 Alpha virt. eigenvalues --    2.75735   2.76974   2.79267   2.79650   2.79946
 Alpha virt. eigenvalues --    2.80766   2.80892   2.81381   2.81750   2.82108
 Alpha virt. eigenvalues --    2.84465   2.85536   2.86075   2.86880   2.87121
 Alpha virt. eigenvalues --    2.89861   2.90883   2.91694   2.95664   2.95712
 Alpha virt. eigenvalues --    2.96398   2.97963   2.98040   2.99383   3.01032
 Alpha virt. eigenvalues --    3.03274   3.05136   3.05956   3.06504   3.07603
 Alpha virt. eigenvalues --    3.09023   3.10235   3.10451   3.12101   3.12791
 Alpha virt. eigenvalues --    3.15799   3.16666   3.19328   3.20001   3.20546
 Alpha virt. eigenvalues --    3.20980   3.21148   3.22909   3.23394   3.25224
 Alpha virt. eigenvalues --    3.25330   3.30133   3.31283   3.32889   3.35117
 Alpha virt. eigenvalues --    3.38507   3.39153   3.42454   3.49632   3.50398
 Alpha virt. eigenvalues --    3.52458   3.53353   3.54595   3.57624   3.59749
 Alpha virt. eigenvalues --    3.62597   3.63688   3.64578   3.65225   3.66129
 Alpha virt. eigenvalues --    3.66314   3.67178   3.71818   3.72036   3.73103
 Alpha virt. eigenvalues --    3.76091   3.76922   3.77214   3.81123   3.81917
 Alpha virt. eigenvalues --    3.82278   3.91250   3.94040   3.99798   4.06991
 Alpha virt. eigenvalues --    4.13798
          Condensed to atoms (all electrons):
 Mulliken charges:
               1
     1  Mn  -0.727846
     2  C    0.369733
     3  O   -0.066349
     4  C    0.367764
     5  O   -0.066335
     6  C    0.309526
     7  N   -0.225161
     8  C   -0.035557
     9  C    0.033651
    10  C    0.095509
    11  H    0.060471
    12  H    0.052782
    13  N    0.016330
    14  C   -0.000383
    15  C   -0.147695
    16  C    0.023708
    17  C   -0.025509
    18  C    0.022294
    19  H    0.040531
    20  H    0.059498
    21  N   -0.224539
    22  C   -0.035677
    23  C    0.034982
    24  H    0.058449
    25  C    0.114215
    26  H    0.095267
    27  C    0.118582
    28  H    0.096649
    29  H    0.049692
    30  O   -0.089147
    31  C   -0.186960
    32  C   -0.083955
    33  C   -0.035223
    34  C    0.066284
    35  C   -0.067448
    36  C   -0.019024
    37  C   -0.019595
    38  C    0.016525
    39  C    0.078243
    40  H    0.035471
    41  H    0.043624
    42  H    0.032619
    43  C    0.076689
    44  C    0.016436
    45  C   -0.019385
    46  C   -0.020104
    47  C   -0.064839
    48  C    0.062549
    49  H    0.032639
    50  H    0.044091
    51  H    0.034746
    52  C   -0.039685
    53  H    0.052709
    54  C    0.094102
    55  H    0.066297
    56  H    0.063946
    57  C   -0.009666
    58  C   -0.023629
    59  H    0.050298
    60  H    0.055662
    61  Br  -0.780276
    62  H    0.021596
    63  H    0.049828
 Sum of Mulliken charges =  -0.00000
 Mulliken charges with hydrogens summed into heavy atoms:
               1
     1  Mn  -0.727846
     2  C    0.369733
     3  O   -0.066349
     4  C    0.367764
     5  O   -0.066335
     6  C    0.309526
     7  N   -0.225161
     8  C    0.024914
     9  C    0.086433
    10  C    0.159455
    13  N    0.016330
    14  C   -0.000383
    15  C   -0.147695
    16  C    0.064239
    17  C    0.024183
    18  C    0.081793
    21  N   -0.224539
    22  C    0.022772
    23  C    0.087690
    25  C    0.209482
    27  C    0.215231
    30  O   -0.089147
    31  C   -0.137132
    32  C   -0.062359
    33  C   -0.035223
    34  C    0.066284
    35  C   -0.031977
    36  C    0.024601
    37  C    0.013024
    38  C    0.016525
    39  C    0.078243
    43  C    0.076689
    44  C    0.016436
    45  C    0.013254
    46  C    0.023987
    47  C   -0.030092
    48  C    0.062549
    52  C   -0.039685
    54  C    0.160398
    57  C    0.045996
    58  C    0.026669
    61  Br  -0.780276
 Electronic spatial extent (au):  <R**2>=          23004.0974
 Charge=             -0.0000 electrons
 Dipole moment (field-independent basis, Debye):
    X=             15.1869    Y=             12.4670    Z=              0.9352  Tot=             19.6708
 Quadrupole moment (field-independent basis, Debye-Ang):
   XX=           -286.7904   YY=           -249.1241   ZZ=           -221.2662
   XY=            -36.6010   XZ=             -5.4428   YZ=             -3.2443
 Traceless Quadrupole moment (field-independent basis, Debye-Ang):
   XX=            -34.3968   YY=              3.2695   ZZ=             31.1273
   XY=            -36.6010   XZ=             -5.4428   YZ=             -3.2443
 Octapole moment (field-independent basis, Debye-Ang**2):
  XXX=            330.6533  YYY=            161.0947  ZZZ=              8.8796  XYY=           -138.9142
  XXY=            135.0449  XXZ=             24.9196  XZZ=             28.3447  YZZ=             11.1890
  YYZ=             -1.7951  XYZ=            -19.3160
 Hexadecapole moment (field-independent basis, Debye-Ang**3):
 XXXX=         -15442.4847 YYYY=          -7026.4630 ZZZZ=          -5648.2668 XXXY=           -535.9820
 XXXZ=           -111.5324 YYYX=           -410.5244 YYYZ=             41.6417 ZZZX=              7.4850
 ZZZY=            -66.7183 XXYY=          -3980.0373 XXZZ=          -3310.1359 YYZZ=          -2578.9056
 XXYZ=             27.4167 YYXZ=            -74.1851 ZZXY=             37.8058
 N-N= 6.084140348147D+03 E-N=-2.499728694165D+04  KE= 5.399419008837D+03
 PrsmSu:  requested number of processors reduced to:  11 ShMem   1 Linda.
 D1PCM: PCM CHGder 1st derivatives, ID1Alg=3 FixD1E=F DoIter=F DoCFld=F I1PDM=0.
 CoulSu:  requested number of processors reduced to:  10 ShMem   1 Linda.
 CoulSu:  requested number of processors reduced to:  10 ShMem   1 Linda.
[...]
   D52       -3.06621   0.00016   0.00000   0.00206   0.00197  -3.06424
   D53       -3.04356  -0.00015   0.00000   0.00060   0.00060  -3.04296
   D54        0.07474   0.00036   0.00000   0.00086   0.00082   0.07556
   D55        2.70524  -0.00011   0.00000  -0.01485  -0.01524   2.69001
   D56        0.30261  -0.00353   0.00000  -0.00502  -0.00505   0.29755
   D57       -2.84697  -0.00310   0.00000  -0.00640  -0.00659  -2.85356
   D58       -3.10498   0.00121   0.00000   0.00266   0.00243  -3.10254
   D59        3.12767   0.00067   0.00000   0.00237   0.00256   3.13023
   D60       -0.00593   0.00020   0.00000   0.00110   0.00132  -0.00461
   D61       -0.00978   0.00031   0.00000   0.00236   0.00234  -0.00745
   D62        3.13980  -0.00016   0.00000   0.00109   0.00110   3.14090
   D63        0.01366  -0.00120   0.00000  -0.00351  -0.00374   0.00992
   D64       -3.13205  -0.00057   0.00000  -0.00158  -0.00176  -3.13381
   D65       -3.13201  -0.00085   0.00000  -0.00350  -0.00353  -3.13553
   D66        0.00547  -0.00022   0.00000  -0.00157  -0.00155   0.00392
   D67       -3.13558  -0.00024   0.00000  -0.00127  -0.00126  -3.13684
   D68        0.00561  -0.00016   0.00000  -0.00118  -0.00117   0.00444
   D69       -0.00210   0.00023   0.00000   0.00003   0.00001  -0.00209
   D70        3.13910   0.00032   0.00000   0.00012   0.00010   3.13920
   D71       -0.79525   0.00034   0.00000  -0.00993  -0.00981  -0.80506
   D72        2.35445  -0.00012   0.00000  -0.01120  -0.01105   2.34339
   D73        0.00283  -0.00012   0.00000  -0.00079  -0.00079   0.00204
   D74       -3.14067   0.00003   0.00000   0.00017   0.00017  -3.14050
   D75       -3.13916  -0.00003   0.00000  -0.00070  -0.00070  -3.13986
   D76        0.00053   0.00011   0.00000   0.00026   0.00026   0.00079
   D77       -0.75789  -0.00100   0.00000   0.00152   0.00163  -0.75625
   D78       -0.23277   0.00155   0.00000  -0.00799  -0.00808  -0.24085
   D79        2.38789  -0.00164   0.00000  -0.00044  -0.00038   2.38751
   D80        2.91301   0.00091   0.00000  -0.00995  -0.01009   2.90291
   D81        0.00305  -0.00005   0.00000  -0.00041  -0.00043   0.00262
   D82       -3.14057  -0.00015   0.00000  -0.00021  -0.00023  -3.14080
   D83        3.14046   0.00059   0.00000   0.00155   0.00159  -3.14114
   D84       -0.00316   0.00049   0.00000   0.00175   0.00178  -0.00137
   D85        1.52432   0.00214   0.00000   0.02359   0.02367   1.54800
   D86        2.99152  -0.00105   0.00000  -0.00488  -0.00500   2.98652
   D87       -0.10151  -0.00013   0.00000  -0.00528  -0.00528  -0.10678
   D88       -0.06516  -0.00016   0.00000  -0.00188  -0.00196  -0.06712
   D89        3.12500   0.00076   0.00000  -0.00229  -0.00224   3.12276
   D90       -2.91704  -0.00005   0.00000   0.00537   0.00534  -2.91171
   D91        0.21704   0.00029   0.00000   0.00319   0.00327   0.22031
   D92        0.13253  -0.00086   0.00000   0.00267   0.00258   0.13512
   D93       -3.01657  -0.00051   0.00000   0.00049   0.00052  -3.01605
   D94       -3.13215  -0.00089   0.00000   0.00381   0.00373  -3.12842
   D95        0.02632  -0.00062   0.00000   0.00255   0.00247   0.02879
   D96        0.05570  -0.00080   0.00000  -0.00015  -0.00024   0.05546
   D97       -3.06901  -0.00052   0.00000  -0.00142  -0.00150  -3.07051
   D98       -2.06261   0.00042   0.00000  -0.02722  -0.02735  -2.08996
   D99        1.03316   0.00029   0.00000  -0.02344  -0.02355   1.00961
   D100      -0.02645   0.00099   0.00000   0.00073   0.00090  -0.02555
   D101       3.06428   0.00007   0.00000   0.00122   0.00125   3.06554
   D102      -3.12330   0.00106   0.00000  -0.00294  -0.00279  -3.12610
   D103      -0.03257   0.00014   0.00000  -0.00246  -0.00244  -0.03501
   D104       3.14097   0.00009   0.00000  -0.00127  -0.00136   3.13960
   D105       0.00380  -0.00007   0.00000   0.00081   0.00075   0.00455
   D106      -0.01747  -0.00018   0.00000  -0.00001  -0.00011  -0.01757
   D107       3.12855  -0.00034   0.00000   0.00207   0.00200   3.13056
   D108      -2.97127  -0.00109   0.00000   0.00168   0.00160  -2.96968
   D109       0.15858  -0.00048   0.00000   0.00007   0.00003   0.15860
   D110       3.13658   0.00028   0.00000   0.00637   0.00628  -3.14033
   D111      -0.01676   0.00089   0.00000   0.00476   0.00471  -0.01205
   D112       0.22695  -0.00156   0.00000  -0.00899  -0.00903   0.21792
   D113      -2.92639  -0.00095   0.00000  -0.01059  -0.01060  -2.93698
   D114      -0.15900   0.00037   0.00000  -0.00054  -0.00050  -0.15949
   D115       2.97744   0.00097   0.00000  -0.00277  -0.00271   2.97473
   D116       0.01560  -0.00089   0.00000  -0.00504  -0.00501   0.01059
   D117      -3.13116  -0.00029   0.00000  -0.00727  -0.00722  -3.13838
   D118       2.92598   0.00084   0.00000   0.01010   0.01011   2.93609
   D119      -0.22077   0.00144   0.00000   0.00787   0.00789  -0.21288
   D120      -1.61900  -0.00066   0.00000  -0.00294  -0.00285  -1.62185
   D121       1.68359  -0.00109   0.00000  -0.00564  -0.00562   1.67797
   D122       3.11067   0.00044   0.00000  -0.00017  -0.00010   3.11058
   D123      -0.05447   0.00017   0.00000   0.00175   0.00182  -0.05266
   D124      -0.09037   0.00151   0.00000   0.01119   0.01125  -0.07912
   D125       3.02767   0.00124   0.00000   0.01311   0.01316   3.04083
   D126      -3.03723  -0.00081   0.00000  -0.00546  -0.00541  -3.04264
   D127       0.08081  -0.00108   0.00000  -0.00354  -0.00350   0.07731
   D128       0.05394  -0.00022   0.00000  -0.00218  -0.00225   0.05169
   D129      -3.11275  -0.00046   0.00000  -0.00001  -0.00009  -3.11283
   D130      -3.02764  -0.00129   0.00000  -0.01375  -0.01377  -3.04141
   D131       0.08885  -0.00153   0.00000  -0.01158  -0.01161   0.07725
   D132      -0.08127   0.00102   0.00000   0.00312   0.00307  -0.07820
   D133       3.03523   0.00078   0.00000   0.00529   0.00523   3.04046
   D134       0.78848   0.00157   0.00000   0.00605   0.00617   0.79466
   D135      -2.40585   0.00211   0.00000   0.00491   0.00505  -2.40081
   D136      -2.32852   0.00105   0.00000   0.00581   0.00597  -2.32255
   D137       0.76033   0.00159   0.00000   0.00467   0.00485   0.76517
   D138       3.07738   0.00014   0.00000  -0.00293  -0.00296   3.07442
   D139      -0.02073   0.00033   0.00000  -0.00111  -0.00111  -0.02184
   D140      -0.01236  -0.00041   0.00000  -0.00182  -0.00186  -0.01423
   D141      -3.11048  -0.00022   0.00000  -0.00000  -0.00002  -3.11050
   D142       0.11138   0.00015   0.00000   0.00153   0.00158   0.11296
   D143      -3.01820  -0.00048   0.00000   0.00313   0.00314  -3.01507
   D144      -3.08204   0.00071   0.00000   0.00033   0.00039  -3.08164
   D145       0.07156   0.00007   0.00000   0.00193   0.00195   0.07351
   D146      -0.03812   0.00020   0.00000   0.00043   0.00046  -0.03766
   D147       3.13750   0.00012   0.00000   0.00094   0.00096   3.13846
   D148       3.06027   0.00003   0.00000  -0.00136  -0.00136   3.05891
   D149      -0.04730  -0.00006   0.00000  -0.00084  -0.00085  -0.04815
   D150       0.02802   0.00004   0.00000   0.00063   0.00065   0.02867
   D151      -3.10485  -0.00018   0.00000   0.00029   0.00027  -3.10459
   D152       3.13515   0.00012   0.00000   0.00011   0.00013   3.13529
   D153       0.00228  -0.00010   0.00000  -0.00024  -0.00025   0.00203
   D154      -3.13374  -0.00055   0.00000   0.00163   0.00157  -3.13217
   D155       0.03175  -0.00033   0.00000  -0.00040  -0.00044   0.03131
   D156      -0.00067  -0.00033   0.00000   0.00197   0.00194   0.00128
   D157      -3.11836  -0.00012   0.00000  -0.00006  -0.00007  -3.11843
   D158      -0.04727  -0.00006   0.00000  -0.00109  -0.00110  -0.04837
   D159       3.08305   0.00051   0.00000  -0.00264  -0.00261   3.08045
   D160       3.07151  -0.00030   0.00000   0.00074   0.00073   3.07224
   D161      -0.08135   0.00027   0.00000  -0.00081  -0.00078  -0.08213
   D162       0.04832   0.00015   0.00000   0.00191   0.00193   0.05025
   D163      -3.06915   0.00037   0.00000  -0.00011  -0.00010  -3.06925
   D164      -3.08828  -0.00042   0.00000   0.00406   0.00406  -3.08422
   D165       0.07743  -0.00020   0.00000   0.00204   0.00204   0.07947
   D166       3.07503  -0.00075   0.00000  -0.00067  -0.00073   3.07431
   D167      -0.11140  -0.00052   0.00000  -0.00323  -0.00332  -0.11472
   D168      -0.07185  -0.00013   0.00000  -0.00294  -0.00297  -0.07482
   D169       3.02490   0.00011   0.00000  -0.00550  -0.00556   3.01934
   D170       3.13972   0.00047   0.00000  -0.00222  -0.00217   3.13755
   D171       0.00427   0.00029   0.00000  -0.00256  -0.00254   0.00173
   D172      -0.02731   0.00029   0.00000   0.00006   0.00010  -0.02721
   D173       3.12043   0.00010   0.00000  -0.00028  -0.00027   3.12016
   D174      -0.02840  -0.00010   0.00000  -0.00155  -0.00157  -0.02997
   D175      -3.13824  -0.00007   0.00000  -0.00006  -0.00007  -3.13832
   D176       3.10691   0.00009   0.00000  -0.00120  -0.00119   3.10572
   D177      -0.00293   0.00012   0.00000   0.00030   0.00031  -0.00262
   D178       0.03412  -0.00011   0.00000   0.00073   0.00071   0.03483
   D179      -3.06175   0.00003   0.00000   0.00218   0.00219  -3.05956
   D180      -3.13885  -0.00013   0.00000  -0.00073  -0.00075  -3.13960
   D181       0.04847   0.00001   0.00000   0.00071   0.00073   0.04920
   D182       0.01648   0.00039   0.00000   0.00167   0.00171   0.01818
   D183      -3.08000   0.00015   0.00000   0.00410   0.00416  -3.07584
   D184       3.11193   0.00025   0.00000   0.00021   0.00022   3.11215
   D185       0.01546   0.00001   0.00000   0.00264   0.00267   0.01813
   D186       2.35544  -0.00168   0.00000   0.00080   0.00071   2.35615
   D187      -0.79072  -0.00151   0.00000  -0.00134  -0.00146  -0.79218
   D188      -0.83213  -0.00141   0.00000  -0.00166  -0.00177  -0.83391
   D189       2.30489  -0.00125   0.00000  -0.00380  -0.00395   2.30094
   D190      -0.10214   0.00074   0.00000  -0.00229  -0.00213  -0.10427
   D191       3.04714   0.00039   0.00000  -0.00006  -0.00002   3.04713
   D192       3.04372   0.00059   0.00000  -0.00027  -0.00008   3.04364
   D193      -0.09018   0.00024   0.00000   0.00196   0.00203  -0.08814
   D194      -0.00718   0.00021   0.00000   0.00157   0.00158  -0.00560
   D195       3.13643   0.00031   0.00000   0.00138   0.00139   3.13782
   D196       3.13632   0.00006   0.00000   0.00062   0.00062   3.13694
   D197      -0.00326   0.00016   0.00000   0.00043   0.00043  -0.00283
         Item               Value     Threshold  Converged?
 Maximum Force            0.028473     0.000450     NO 
 RMS     Force            0.003292     0.000300     NO 
 Maximum Displacement     0.229818     0.001800     NO 
 RMS     Displacement     0.045229     0.001200     NO 
 Predicted change in Energy=-4.462089D-03
 GradGradGradGradGradGradGradGradGradGradGradGradGradGradGradGradGradGrad

 Stoichiometry    C34H21BrMnN3O3
 Framework group  C1[X(C34H21BrMnN3O3)]
 Deg. of freedom   183
 Full point group                 C1      NOp   1
 Largest Abelian subgroup         C1      NOp   1
 Largest concise Abelian subgroup C1      NOp   1
                         Standard orientation:                         
 ---------------------------------------------------------------------
 Center     Atomic      Atomic             Coordinates (Angstroms)
 Number     Number       Type             X           Y           Z
 ---------------------------------------------------------------------
      1         25           0       -1.711053   -1.892031   -0.074330
      2          6           0       -2.683686   -2.720711   -1.392905
      3          8           0       -3.212884   -3.306451   -2.221893
      4          6           0       -2.673053   -2.784715    1.212652
      5          8           0       -3.200113   -3.397922    2.023153
      6          6           0       -0.594289   -3.261726   -0.101070
      7          7           0       -0.709991   -0.984989    1.495687
      8          6           0       -0.821401    0.446920    3.415357
      9          6           0        0.564727    0.557757    3.446341
     10          6           0        0.620245   -0.953836    1.602951
     11          1           0       -1.441917    0.971429    4.142597
     12          1           0        1.054812    1.197457    4.184454
     13          7           0       -1.818765    1.035149    0.042523
     14          6           0       -1.828284    2.186790    0.078152
     15          6           0       -1.869528    3.619961    0.114574
     16          6           0       -0.738382    4.367705   -0.214419
     17          6           0       -0.805132    5.760608   -0.185391
     18          6           0       -3.059790    4.251671    0.479575
     19          1           0        0.180864    3.858329   -0.495914
     20          1           0       -3.930408    3.646791    0.738416
     21          7           0       -0.703458   -0.863608   -1.544353
     22          6           0       -0.843813    0.784858   -3.268523
     23          6           0        0.545519    0.892651   -3.319955
     24          1           0       -1.488744    1.397573   -3.894976
     25          6           0       -1.419445   -0.312036    2.422197
     26          1           0       -2.507884   -0.359573    2.333455
     27          6           0       -1.424758   -0.085903   -2.365472
     28          1           0       -2.510623   -0.139510   -2.253821
     29          1           0        0.072114    6.354315   -0.445122
     30          8           0        0.074493   -4.202288   -0.113777
     31          6           0        2.894205    0.181185    0.015032
     32          6           0        5.603035   -0.107207    0.009703
     33          6           0        1.321882   -0.156951    2.517173
     34          6           0        2.808152   -0.116533    2.495889
     35          6           0        3.524380   -0.238459    3.660285
     36          6           0        4.951896   -0.284152    3.658118
     37          6           0        5.644157   -0.250985    2.482222
     38          6           0        4.943535   -0.134238    1.236340
     39          6           0        3.525327   -0.014883    1.241275
     40          1           0        2.994435   -0.345435    4.610699
     41          1           0        5.481809   -0.378938    4.608857
     42          1           0        6.735806   -0.320094    2.468433
     43          6           0        3.528695    0.088104   -1.220600
     44          6           0        4.948877   -0.030465   -1.221309
     45          6           0        5.648832   -0.038637   -2.473331
     46          6           0        4.955599    0.034152   -3.647560
     47          6           0        3.527029    0.082453   -3.649734
     48          6           0        2.807978    0.098348   -2.480175
     49          1           0        6.740508   -0.109398   -2.467928
     50          1           0        5.487266    0.024955   -4.602679
     51          1           0        3.001478    0.061867   -4.607889
     52          6           0        1.317430    0.064664   -2.499900
     53          1           0        1.024387    1.622054   -3.979007
     54          6           0        0.623718   -0.832952   -1.675600
     55          1           0        1.186734   -1.555959   -1.088062
     56          1           0        1.179487   -1.597060    0.924272
     57          6           0       -1.989985    6.397124    0.174296
     58          6           0       -3.114433    5.645150    0.509451
     59          1           0       -4.037822    6.147900    0.793522
     60          1           0       -2.038333    7.491400    0.194790
     61         35           0       -4.350004   -0.768755   -0.089817
     62          1           0        6.725730   -0.102132    0.021351
     63          1           0        1.814873    0.474402    0.025701
 ---------------------------------------------------------------------
 Rotational constants (GHZ):           0.0882588           0.0592020           0.0527677
 Basis read from rwf:  (5D, 7F)
 There are   802 symmetry adapted cartesian basis functions of A   symmetry.
 There are   751 symmetry adapted basis functions of A   symmetry.
   751 basis functions,  1339 primitive gaussians,   802 cartesian basis functions
   165 alpha electrons      165 beta electrons
       nuclear repulsion energy      6112.1571930897 Hartrees.
 NAtoms=   63 NActive=   63 NUniq=   63 SFac= 1.00D+00 NAtFMM=   60 NAOKFM=T Big=T
 Integral buffers will be    131072 words long.
 Raffenetti 2 integral format.
 Two-electron integral symmetry is turned on.
 Nuclear repulsion after empirical dispersion term =     6112.0912375740 Hartrees.
 ------------------------------------------------------------------------------
 Polarizable Continuum Model (PCM)
 =================================
 Model                : PCM.
 Atomic radii         : UFF (Universal Force Field).
 Polarization charges : Total charges.
 Charge compensation  : None.
 Solution method      : On-the-fly selection.
 Cavity type          : Scaled VdW (van der Waals Surface) (Alpha=1.100).
 Cavity algorithm     : GePol (No added spheres)
                        Default sphere list used, NSphG=   63.
                        Lebedev-Laikov grids with approx.  5.0 points / Ang**2.
                        Smoothing algorithm: York/Karplus (Gamma=1.0000).
                        Polarization charges: spherical gaussians, with
                                              point-specific exponents (IZeta= 3).
                        Self-potential: point-specific (ISelfS= 7).
                        Self-field    : sphere-specific E.n sum rule (ISelfD= 2).
 1st derivatives      : Analytical E(r).r(x)/FMM algorithm (CHGder, D1EAlg=3).
                        Cavity 1st derivative terms included.
 Solvent              : TetraHydroFuran, Eps=   7.425700 Eps(inf)=   1.974025
 ------------------------------------------------------------------------------
 One-electron integrals computed using PRISM.
 PrsmSu:  requested number of processors reduced to:  11 ShMem   1 Linda.
 NBasis=   751 RedAO= T EigKep=  2.22D-04  NBF=   751
 NBsUse=   751 1.00D-06 EigRej= -1.00D+00 NBFU=   751
 Initial guess from the checkpoint file:  "checkpoint.chk"
 B after Tr=     0.000000    0.000000   -0.000000
         Rot=    0.999875   -0.003851    0.000087   -0.015358 Ang=  -1.81 deg.
 ExpMin= 3.93D-02 ExpMax= 2.77D+05 ExpMxC= 1.70D+04 IAcc=3 IRadAn=         5 AccDes= 0.00D+00
 Harris functional with IExCor= 4639 and IRadAn=       5 diagonalized for initial guess.
 HarFok:  IExCor= 4639 AccDes= 0.00D+00 IRadAn=         5 IDoV= 1 UseB2=F ITyADJ=14
 ICtDFT=  3500011 ScaDFX=  1.000000  1.000000  1.000000  1.000000
 FoFCou: FMM=F IPFlag=           0 FMFlag=      100000 FMFlg1=        2001
         NFxFlg=           0 DoJE=T BraDBF=F KetDBF=T FulRan=T
         wScrn=  0.000000 ICntrl=       500 IOpCl=  0 I1Cent=   200000004 NGrid=           0
         NMat0=    1 NMatS0=      1 NMatT0=    0 NMatD0=    1 NMtDS0=    0 NMtDT0=    0
 Petite list used in FoFCou.
 Requested convergence on RMS density matrix=1.00D-08 within 128 cycles.
 Requested convergence on MAX density matrix=1.00D-06.
 Requested convergence on             energy=1.00D-06.
 No special actions if energy rises.
 CoulSu:  requested number of processors reduced to:   9 ShMem   1 Linda.
 Inv3:  Mode=1 IEnd=    67744512.
 Iteration    1 A*A^-1 deviation from unit magnitude is 3.33D-15 for   2949.
 Iteration    1 A*A^-1 deviation from orthogonality  is 2.66D-15 for   3210    470.
 Iteration    1 A^-1*A deviation from unit magnitude is 3.33D-15 for   2949.
 Iteration    1 A^-1*A deviation from orthogonality  is 2.11D-15 for   3035    457.
 CoulSu:  requested number of processors reduced to:   9 ShMem   1 Linda.
 CoulSu:  requested number of processors reduced to:   9 ShMem   1 Linda.
